
     Program PWSCF v.5.4.0 starts on 23Jan2018 at  1:57:20 

     This program is part of the open-source Quantum ESPRESSO suite
     for quantum simulation of materials; please cite
         "P. Giannozzi et al., J. Phys.:Condens. Matter 21 395502 (2009);
          URL http://www.quantum-espresso.org", 
     in publications or presentations arising from this work. More details at
     http://www.quantum-espresso.org/quote

     Parallel version (MPI & OpenMP), running on       1 processor cores
     Number of MPI processes:                 1
     Threads/MPI process:                     1
     Reading input from pw_scf.in
Warning: card &IONS ignored
Warning: card / ignored
Warning: card &CELL ignored
Warning: card / ignored

     Current dimensions of program PWSCF are:
     Max number of different atomic species (ntypx) = 10
     Max number of k-points (npk) =  40000
     Max angular momentum in pseudopotentials (lmaxx) =  3

     Subspace diagonalization in iterative solution of the eigenvalue problem:
     a serial algorithm will be used

 
     G-vector sticks info
     --------------------
     sticks:   dense  smooth     PW     G-vecs:    dense   smooth      PW
     Sum         745     583    187                13323     9409    1639
 


     bravais-lattice index     =            0
     lattice parameter (alat)  =       7.3076  a.u.
     unit-cell volume          =     275.9333 (a.u.)^3
     number of atoms/cell      =            2
     number of atomic types    =            1
     number of electrons       =         8.00
     number of Kohn-Sham states=            8
     kinetic-energy cutoff     =      40.0000  Ry
     charge density cutoff     =     200.0000  Ry
     convergence threshold     =      1.0E-06
     mixing beta               =       0.3000
     number of iterations used =            8  plain     mixing
     Exchange-correlation      = SLA  PW   PBE  PBE ( 1  4  3  4 0 0)

     celldm(1)=   7.307571  celldm(2)=   0.000000  celldm(3)=   0.000000
     celldm(4)=   0.000000  celldm(5)=   0.000000  celldm(6)=   0.000000

     crystal axes: (cart. coord. in units of alat)
               a(1) = (   0.866025   0.000000   0.500000 )  
               a(2) = (   0.288675   0.816497   0.500000 )  
               a(3) = (   0.000000   0.000000   1.000000 )  

     reciprocal axes: (cart. coord. in units 2 pi/alat)
               b(1) = (  1.154701 -0.408248  0.000000 )  
               b(2) = (  0.000000  1.224745  0.000000 )  
               b(3) = ( -0.577350 -0.408248  1.000000 )  


     PseudoPot. # 1 for Si read from file:
     /home/pcje/data/pcje-default/si2-555-jan-22-2018-17-55-pm-7uAwqWgQmEF5NzFzh/pseudo/si_pbe_gbrv_1.0.upf
     MD5 check sum: a056efeee980c13900f22a371efd63c1
     Pseudo is Ultrasoft + core correction, Zval =  4.0
     Generated by new atomic code, or converted to UPF format
     Using radial grid of  899 points,  6 beta functions with: 
                l(1) =   0
                l(2) =   0
                l(3) =   1
                l(4) =   1
                l(5) =   2
                l(6) =   2
     Q(r) pseudized with  8 coefficients,  rinner =    0.900   0.900   0.900
                                                       0.900   0.900

     atomic species   valence    mass     pseudopotential
        Si             4.00    28.08550     Si( 1.00)

      4 Sym. Ops., with inversion, found ( 2 have fractional translation)



   Cartesian axes

     site n.     atom                  positions (alat units)
         1           Si  tau(   1) = (   0.0000000   0.0000000   0.0000000  )
         2           Si  tau(   2) = (   0.2886752   0.2041241   0.5000000  )

     number of k points=    39  gaussian smearing, width (Ry)=  0.0050
                       cart. coord. in units 2pi/alat
        k(    1) = (   0.0000000   0.0000000   0.0000000), wk =   0.0160000
        k(    2) = (  -0.1154701  -0.0816496   0.2000000), wk =   0.0640000
        k(    3) = (  -0.2309401  -0.1632993   0.4000000), wk =   0.0640000
        k(    4) = (   0.0000000   0.2449490   0.0000000), wk =   0.0320000
        k(    5) = (  -0.1154701   0.1632993   0.2000000), wk =   0.0640000
        k(    6) = (  -0.2309401   0.0816497   0.4000000), wk =   0.0640000
        k(    7) = (   0.2309401   0.4082483  -0.4000000), wk =   0.0640000
        k(    8) = (   0.1154701   0.3265986  -0.2000000), wk =   0.0640000
        k(    9) = (   0.0000000   0.4898980   0.0000000), wk =   0.0320000
        k(   10) = (  -0.1154701   0.4082483   0.2000000), wk =   0.0640000
        k(   11) = (  -0.2309401   0.3265987   0.4000000), wk =   0.0640000
        k(   12) = (   0.2309401   0.6531973  -0.4000000), wk =   0.0640000
        k(   13) = (   0.1154701   0.5715476  -0.2000000), wk =   0.0640000
        k(   14) = (   0.2309401  -0.0816497   0.0000000), wk =   0.0320000
        k(   15) = (   0.0000000  -0.2449490   0.4000000), wk =   0.0640000
        k(   16) = (   0.4618802   0.0816496  -0.4000000), wk =   0.0640000
        k(   17) = (   0.3464102  -0.0000000  -0.2000000), wk =   0.0640000
        k(   18) = (   0.2309401   0.1632993   0.0000000), wk =   0.0320000
        k(   19) = (   0.0000000   0.0000000   0.4000000), wk =   0.0320000
        k(   20) = (   0.4618802   0.3265986  -0.4000000), wk =   0.0640000
        k(   21) = (   0.3464102   0.2449489  -0.2000000), wk =   0.0640000
        k(   22) = (   0.2309401   0.4082483   0.0000000), wk =   0.0320000
        k(   23) = (   0.4618802   0.5715476  -0.4000000), wk =   0.0640000
        k(   24) = (   0.3464102   0.4898979  -0.2000000), wk =   0.0640000
        k(   25) = (   0.2309401  -0.5715477   0.0000000), wk =   0.0320000
        k(   26) = (   0.0000000  -0.7348469   0.4000000), wk =   0.0640000
        k(   27) = (   0.4618802  -0.4082484  -0.4000000), wk =   0.0640000
        k(   28) = (   0.3464102  -0.4898980  -0.2000000), wk =   0.0640000
        k(   29) = (   0.2309401  -0.3265987   0.0000000), wk =   0.0320000
        k(   30) = (   0.4618802  -0.1632994  -0.4000000), wk =   0.0640000
        k(   31) = (   0.3464102  -0.2449490  -0.2000000), wk =   0.0640000
        k(   32) = (   0.4618802  -0.1632994   0.0000000), wk =   0.0320000
        k(   33) = (   0.5773503  -0.0816497  -0.2000000), wk =   0.0640000
        k(   34) = (   0.4618802   0.0816496   0.0000000), wk =   0.0320000
        k(   35) = (   0.5773503   0.1632993  -0.2000000), wk =   0.0640000
        k(   36) = (   0.4618802   0.3265986   0.0000000), wk =   0.0320000
        k(   37) = (   0.5773503   0.4082482  -0.2000000), wk =   0.0320000
        k(   38) = (   0.4618802  -0.6531973   0.0000000), wk =   0.0320000
        k(   39) = (   0.4618802  -0.4082484   0.0000000), wk =   0.0320000

     Dense  grid:    13323 G-vectors     FFT dimensions: (  36,  36,  36)

     Smooth grid:     9409 G-vectors     FFT dimensions: (  30,  30,  30)

     Largest allocated arrays     est. size (Mb)     dimensions
        Kohn-Sham Wavefunctions         0.15 Mb     (    1243,    8)
        NL pseudopotentials             0.68 Mb     (    1243,   36)
        Each V/rho on FFT grid          0.71 Mb     (   46656)
        Each G-vector array             0.10 Mb     (   13323)
        G-vector shells                 0.03 Mb     (    3473)
     Largest temporary arrays     est. size (Mb)     dimensions
        Auxiliary wavefunctions         0.61 Mb     (    1243,   32)
        Each subspace H/S matrix        0.02 Mb     (      32,   32)
        Each <psi_i|beta_j> matrix      0.00 Mb     (      36,    8)
        Arrays for rho mixing           5.70 Mb     (   46656,    8)

     Initial potential from superposition of free atoms

     starting charge    7.99866, renormalised to    8.00000
     Starting wfc are    8 randomized atomic wfcs

     total cpu time spent up to now is        0.7 secs

     per-process dynamical memory:    33.6 Mb

     Self-consistent Calculation

     iteration #  1     ecut=    40.00 Ry     beta=0.30
     Davidson diagonalization with overlap
     ethr =  1.00E-02,  avg # of iterations =  3.3

     Threshold (ethr) on eigenvalues was too large:
     Diagonalizing with lowered threshold

     Davidson diagonalization with overlap
     ethr =  7.21E-04,  avg # of iterations =  2.6

     total cpu time spent up to now is        3.2 secs

     total energy              =     -19.19237380 Ry
     Harris-Foulkes estimate   =     -19.19985630 Ry
     estimated scf accuracy    <       0.05690316 Ry

     iteration #  2     ecut=    40.00 Ry     beta=0.30
     Davidson diagonalization with overlap
     ethr =  7.11E-04,  avg # of iterations =  1.0

     total cpu time spent up to now is        4.3 secs

     total energy              =     -19.18751834 Ry
     Harris-Foulkes estimate   =     -19.19289213 Ry
     estimated scf accuracy    <       0.02400905 Ry

     iteration #  3     ecut=    40.00 Ry     beta=0.30
     Davidson diagonalization with overlap
     ethr =  3.00E-04,  avg # of iterations =  1.3

     total cpu time spent up to now is        5.3 secs

     total energy              =     -19.18873264 Ry
     Harris-Foulkes estimate   =     -19.18878050 Ry
     estimated scf accuracy    <       0.00031933 Ry

     iteration #  4     ecut=    40.00 Ry     beta=0.30
     Davidson diagonalization with overlap
     ethr =  3.99E-06,  avg # of iterations =  3.1

     total cpu time spent up to now is        6.8 secs

     total energy              =     -19.18881805 Ry
     Harris-Foulkes estimate   =     -19.18881651 Ry
     estimated scf accuracy    <       0.00000452 Ry

     iteration #  5     ecut=    40.00 Ry     beta=0.30
     Davidson diagonalization with overlap
     ethr =  5.65E-08,  avg # of iterations =  3.7

     total cpu time spent up to now is        8.2 secs

     End of self-consistent calculation

          k = 0.0000 0.0000 0.0000 (  1243 PWs)   bands (ev):

    -5.8258   5.9933   5.9933   5.9933   8.5439   8.5439   8.5439   9.1165

          k =-0.1155-0.0816 0.2000 (  1173 PWs)   bands (ev):

    -5.3178   3.0076   5.4238   5.4238   8.1402   9.3330   9.3330  11.8645

          k =-0.2309-0.1633 0.4000 (  1173 PWs)   bands (ev):

    -3.9845  -0.2002   4.8825   4.8825   7.5377   9.4106   9.4106  13.7923

          k = 0.0000 0.2449 0.0000 (  1173 PWs)   bands (ev):

    -5.3178   3.0076   5.4238   5.4238   8.1402   9.3330   9.3330  11.8645

          k =-0.1155 0.1633 0.2000 (  1191 PWs)   bands (ev):

    -5.1428   3.3560   4.5353   4.5353   7.4648   9.8420  10.8315  10.8315

          k =-0.2309 0.0816 0.4000 (  1189 PWs)   bands (ev):

    -4.0238   0.7256   3.4119   4.0342   7.7768  10.0601  10.8510  11.3871

          k = 0.2309 0.4082-0.4000 (  1176 PWs)   bands (ev):

    -3.1626  -0.6335   2.6187   4.3092   8.0481  10.5383  10.7707  13.4851

          k = 0.1155 0.3266-0.2000 (  1169 PWs)   bands (ev):

    -4.5022   1.5428   3.0547   5.1597   8.8388   9.9531  10.2634  11.6439

          k = 0.0000 0.4899 0.0000 (  1173 PWs)   bands (ev):

    -3.9845  -0.2002   4.8825   4.8825   7.5377   9.4106   9.4106  13.7923

          k =-0.1155 0.4082 0.2000 (  1189 PWs)   bands (ev):

    -4.0238   0.7256   3.4119   4.0342   7.7768  10.0601  10.8510  11.3871

          k =-0.2309 0.3266 0.4000 (  1190 PWs)   bands (ev):

    -3.1628  -0.1477   3.3485   3.3485   6.6079   7.3402  14.3902  14.3902

          k = 0.2309 0.6532-0.4000 (  1156 PWs)   bands (ev):

    -1.9870  -1.3841   2.0180   3.4646   7.0541   9.1402  13.9834  14.5564

          k = 0.1155 0.5715-0.2000 (  1176 PWs)   bands (ev):

    -3.1626  -0.6335   2.6187   4.3092   8.0481  10.5383  10.7707  13.4851

          k = 0.2309-0.0816 0.0000 (  1173 PWs)   bands (ev):

    -5.3178   3.0076   5.4238   5.4238   8.1402   9.3330   9.3330  11.8645

          k = 0.0000-0.2449 0.4000 (  1189 PWs)   bands (ev):

    -4.0238   0.7256   3.4119   4.0342   7.7768  10.0601  10.8510  11.3871

          k = 0.4619 0.0816-0.4000 (  1176 PWs)   bands (ev):

    -3.1626  -0.6335   2.6187   4.3092   8.0481  10.5383  10.7707  13.4851

          k = 0.3464-0.0000-0.2000 (  1169 PWs)   bands (ev):

    -4.5022   1.5428   3.0547   5.1597   8.8388   9.9531  10.2634  11.6439

          k = 0.2309 0.1633 0.0000 (  1191 PWs)   bands (ev):

    -5.1428   3.3560   4.5353   4.5353   7.4648   9.8420  10.8315  10.8315

          k = 0.0000 0.0000 0.4000 (  1169 PWs)   bands (ev):

    -4.5022   1.5428   3.0547   5.1597   8.8388   9.9531  10.2634  11.6439

          k = 0.4619 0.3266-0.4000 (  1176 PWs)   bands (ev):

    -3.1626  -0.6335   2.6187   4.3093   8.0481  10.5383  10.7707  13.4851

          k = 0.3464 0.2449-0.2000 (  1189 PWs)   bands (ev):

    -4.0238   0.7256   3.4119   4.0343   7.7768  10.0601  10.8510  11.3871

          k = 0.2309 0.4082 0.0000 (  1189 PWs)   bands (ev):

    -4.0238   0.7256   3.4119   4.0342   7.7768  10.0601  10.8510  11.3871

          k = 0.4619 0.5715-0.4000 (  1183 PWs)   bands (ev):

    -2.7361  -0.5250   2.0983   3.0660   9.3736   9.7729  10.3596  13.6926

          k = 0.3464 0.4899-0.2000 (  1183 PWs)   bands (ev):

    -2.7361  -0.5250   2.0983   3.0660   9.3736   9.7729  10.3596  13.6926

          k = 0.2309-0.5715 0.0000 (  1176 PWs)   bands (ev):

    -3.1626  -0.6335   2.6187   4.3092   8.0481  10.5383  10.7707  13.4851

          k = 0.0000-0.7348 0.4000 (  1183 PWs)   bands (ev):

    -2.7361  -0.5250   2.0983   3.0660   9.3736   9.7729  10.3596  13.6926

          k = 0.4619-0.4082-0.4000 (  1156 PWs)   bands (ev):

    -1.9870  -1.3841   2.0180   3.4646   7.0541   9.1402  13.9834  14.5564

          k = 0.3464-0.4899-0.2000 (  1183 PWs)   bands (ev):

    -2.7361  -0.5250   2.0983   3.0659   9.3737   9.7729  10.3596  13.6926

          k = 0.2309-0.3266 0.0000 (  1169 PWs)   bands (ev):

    -4.5022   1.5429   3.0547   5.1597   8.8388   9.9531  10.2634  11.6439

          k = 0.4619-0.1633-0.4000 (  1183 PWs)   bands (ev):

    -2.7361  -0.5250   2.0983   3.0660   9.3736   9.7729  10.3596  13.6926

          k = 0.3464-0.2449-0.2000 (  1189 PWs)   bands (ev):

    -4.0238   0.7256   3.4119   4.0342   7.7768  10.0601  10.8510  11.3871

          k = 0.4619-0.1633 0.0000 (  1173 PWs)   bands (ev):

    -3.9845  -0.2002   4.8825   4.8825   7.5377   9.4106   9.4106  13.7923

          k = 0.5774-0.0816-0.2000 (  1176 PWs)   bands (ev):

    -3.1626  -0.6335   2.6187   4.3092   8.0481  10.5383  10.7707  13.4851

          k = 0.4619 0.0816 0.0000 (  1189 PWs)   bands (ev):

    -4.0238   0.7256   3.4119   4.0342   7.7768  10.0601  10.8510  11.3871

          k = 0.5774 0.1633-0.2000 (  1183 PWs)   bands (ev):

    -2.7361  -0.5250   2.0983   3.0659   9.3736   9.7729  10.3596  13.6926

          k = 0.4619 0.3266 0.0000 (  1190 PWs)   bands (ev):

    -3.1628  -0.1477   3.3485   3.3485   6.6079   7.3402  14.3902  14.3902

          k = 0.5774 0.4082-0.2000 (  1156 PWs)   bands (ev):

    -1.9870  -1.3841   2.0179   3.4646   7.0541   9.1402  13.9834  14.5564

          k = 0.4619-0.6532 0.0000 (  1156 PWs)   bands (ev):

    -1.9870  -1.3840   2.0180   3.4646   7.0541   9.1402  13.9834  14.5564

          k = 0.4619-0.4082 0.0000 (  1176 PWs)   bands (ev):

    -3.1626  -0.6335   2.6187   4.3092   8.0481  10.5383  10.7707  13.4851

     the Fermi energy is     6.3016 ev

!    total energy              =     -19.18881972 Ry
     Harris-Foulkes estimate   =     -19.18881929 Ry
     estimated scf accuracy    <       0.00000036 Ry

     The total energy is the sum of the following terms:

     one-electron contribution =       4.94766364 Ry
     hartree contribution      =       1.14421655 Ry
     xc contribution           =      -8.60083008 Ry
     ewald contribution        =     -16.67986983 Ry
     smearing contrib. (-TS)   =      -0.00000000 Ry

     convergence has been achieved in   5 iterations

     Forces acting on atoms (Ry/au):

     atom    1 type  1   force =    -0.00000076   -0.00000086    0.00000000
     atom    2 type  1   force =     0.00000076    0.00000086    0.00000000

     Total force =     0.000002     Total SCF correction =     0.000003
     SCF correction compared to forces is large: reduce conv_thr to get better values


     entering subroutine stress ...

          total   stress  (Ry/bohr**3)                   (kbar)     P=    1.26
   0.00000858  -0.00000001   0.00000000          1.26     -0.00      0.00
  -0.00000001   0.00000854  -0.00000000         -0.00      1.26     -0.00
   0.00000000   0.00000000   0.00000855          0.00      0.00      1.26


     Writing output data file __prefix__.save
 
     init_run     :      0.60s CPU      0.72s WALL (       1 calls)
     electrons    :      7.10s CPU      7.43s WALL (       1 calls)
     forces       :      0.15s CPU      0.20s WALL (       1 calls)
     stress       :      0.47s CPU      0.56s WALL (       1 calls)

     Called by init_run:
     wfcinit      :      0.32s CPU      0.33s WALL (       1 calls)
     potinit      :      0.05s CPU      0.05s WALL (       1 calls)

     Called by electrons:
     c_bands      :      5.65s CPU      5.69s WALL (       6 calls)
     sum_band     :      1.18s CPU      1.39s WALL (       6 calls)
     v_of_rho     :      0.13s CPU      0.14s WALL (       6 calls)
     newd         :      0.16s CPU      0.34s WALL (       6 calls)
     mix_rho      :      0.01s CPU      0.01s WALL (       6 calls)

     Called by c_bands:
     init_us_2    :      0.16s CPU      0.15s WALL (     585 calls)
     cegterg      :      4.99s CPU      5.03s WALL (     234 calls)

     Called by sum_band:
     sum_band:bec :      0.00s CPU      0.00s WALL (     234 calls)
     addusdens    :      0.19s CPU      0.39s WALL (       6 calls)

     Called by *egterg:
     h_psi        :      4.90s CPU      4.94s WALL (     861 calls)
     s_psi        :      0.08s CPU      0.08s WALL (     861 calls)
     g_psi        :      0.02s CPU      0.03s WALL (     588 calls)
     cdiaghg      :      0.08s CPU      0.09s WALL (     783 calls)

     Called by h_psi:
     add_vuspsi   :      0.08s CPU      0.08s WALL (     861 calls)

     General routines
     calbec       :      0.14s CPU      0.13s WALL (    1290 calls)
     fft          :      0.11s CPU      0.12s WALL (     121 calls)
     ffts         :      0.01s CPU      0.01s WALL (      12 calls)
     fftw         :      5.22s CPU      5.14s WALL (   12548 calls)
     interpolate  :      0.02s CPU      0.02s WALL (      12 calls)
 
     Parallel routines
     fft_scatter  :      0.15s CPU      0.27s WALL (   12681 calls)
 
     PWSCF        :     8.41s CPU        10.21s WALL

 
   This run was terminated on:   1:57:30  23Jan2018            

=------------------------------------------------------------------------------=
   JOB DONE.
=------------------------------------------------------------------------------=
