
     Program PWSCF v.5.4.0 starts on 24Jan2018 at  3:18: 0 

     This program is part of the open-source Quantum ESPRESSO suite
     for quantum simulation of materials; please cite
         "P. Giannozzi et al., J. Phys.:Condens. Matter 21 395502 (2009);
          URL http://www.quantum-espresso.org", 
     in publications or presentations arising from this work. More details at
     http://www.quantum-espresso.org/quote

     Parallel version (MPI & OpenMP), running on       1 processor cores
     Number of MPI processes:                 1
     Threads/MPI process:                     1
     Reading input from pw_scf.in
Warning: card &IONS ignored
Warning: card / ignored
Warning: card &CELL ignored
Warning: card / ignored

     Current dimensions of program PWSCF are:
     Max number of different atomic species (ntypx) = 10
     Max number of k-points (npk) =  40000
     Max angular momentum in pseudopotentials (lmaxx) =  3

     Subspace diagonalization in iterative solution of the eigenvalue problem:
     a serial algorithm will be used

 
     G-vector sticks info
     --------------------
     sticks:   dense  smooth     PW     G-vecs:    dense   smooth      PW
     Sum         745     583    187                13323     9409    1639
 


     bravais-lattice index     =            0
     lattice parameter (alat)  =       7.3076  a.u.
     unit-cell volume          =     275.9333 (a.u.)^3
     number of atoms/cell      =            2
     number of atomic types    =            1
     number of electrons       =         8.00
     number of Kohn-Sham states=            8
     kinetic-energy cutoff     =      40.0000  Ry
     charge density cutoff     =     200.0000  Ry
     convergence threshold     =      1.0E-06
     mixing beta               =       0.3000
     number of iterations used =            8  plain     mixing
     Exchange-correlation      = SLA  PW   PBE  PBE ( 1  4  3  4 0 0)

     celldm(1)=   7.307571  celldm(2)=   0.000000  celldm(3)=   0.000000
     celldm(4)=   0.000000  celldm(5)=   0.000000  celldm(6)=   0.000000

     crystal axes: (cart. coord. in units of alat)
               a(1) = (   0.866025   0.000000   0.500000 )  
               a(2) = (   0.288675   0.816497   0.500000 )  
               a(3) = (   0.000000   0.000000   1.000000 )  

     reciprocal axes: (cart. coord. in units 2 pi/alat)
               b(1) = (  1.154701 -0.408248  0.000000 )  
               b(2) = (  0.000000  1.224745  0.000000 )  
               b(3) = ( -0.577350 -0.408248  1.000000 )  


     PseudoPot. # 1 for Si read from file:
     /home/pcje/data/pcje-default/si2-777-jan-23-2018-19-17-pm-ohm7CYiwxELPDd73S/pseudo/si_pbe_gbrv_1.0.upf
     MD5 check sum: a056efeee980c13900f22a371efd63c1
     Pseudo is Ultrasoft + core correction, Zval =  4.0
     Generated by new atomic code, or converted to UPF format
     Using radial grid of  899 points,  6 beta functions with: 
                l(1) =   0
                l(2) =   0
                l(3) =   1
                l(4) =   1
                l(5) =   2
                l(6) =   2
     Q(r) pseudized with  8 coefficients,  rinner =    0.900   0.900   0.900
                                                       0.900   0.900

     atomic species   valence    mass     pseudopotential
        Si             4.00    28.08550     Si( 1.00)

      4 Sym. Ops., with inversion, found ( 2 have fractional translation)



   Cartesian axes

     site n.     atom                  positions (alat units)
         1           Si  tau(   1) = (   0.0000000   0.0000000   0.0000000  )
         2           Si  tau(   2) = (   0.2886752   0.2041241   0.5000000  )

     number of k points=   100  gaussian smearing, width (Ry)=  0.0050

     Number of k-points >= 100: set verbosity='high' to print them.

     Dense  grid:    13323 G-vectors     FFT dimensions: (  36,  36,  36)

     Smooth grid:     9409 G-vectors     FFT dimensions: (  30,  30,  30)

     Largest allocated arrays     est. size (Mb)     dimensions
        Kohn-Sham Wavefunctions         0.15 Mb     (    1243,    8)
        NL pseudopotentials             0.68 Mb     (    1243,   36)
        Each V/rho on FFT grid          0.71 Mb     (   46656)
        Each G-vector array             0.10 Mb     (   13323)
        G-vector shells                 0.03 Mb     (    3473)
     Largest temporary arrays     est. size (Mb)     dimensions
        Auxiliary wavefunctions         0.61 Mb     (    1243,   32)
        Each subspace H/S matrix        0.02 Mb     (      32,   32)
        Each <psi_i|beta_j> matrix      0.00 Mb     (      36,    8)
        Arrays for rho mixing           5.70 Mb     (   46656,    8)

     Initial potential from superposition of free atoms

     starting charge    7.99866, renormalised to    8.00000
     Starting wfc are    8 randomized atomic wfcs

     total cpu time spent up to now is        1.2 secs

     per-process dynamical memory:    43.3 Mb

     Self-consistent Calculation

     iteration #  1     ecut=    40.00 Ry     beta=0.30
     Davidson diagonalization with overlap
     ethr =  1.00E-02,  avg # of iterations =  3.6

     Threshold (ethr) on eigenvalues was too large:
     Diagonalizing with lowered threshold

     Davidson diagonalization with overlap
     ethr =  6.96E-04,  avg # of iterations =  1.7

     total cpu time spent up to now is        7.6 secs

     total energy              =     -19.19614974 Ry
     Harris-Foulkes estimate   =     -19.20331422 Ry
     estimated scf accuracy    <       0.05492690 Ry

     iteration #  2     ecut=    40.00 Ry     beta=0.30
     Davidson diagonalization with overlap
     ethr =  6.87E-04,  avg # of iterations =  1.0

     total cpu time spent up to now is       10.0 secs

     total energy              =     -19.19153408 Ry
     Harris-Foulkes estimate   =     -19.19666902 Ry
     estimated scf accuracy    <       0.02307635 Ry

     iteration #  3     ecut=    40.00 Ry     beta=0.30
     Davidson diagonalization with overlap
     ethr =  2.88E-04,  avg # of iterations =  1.5

     total cpu time spent up to now is       12.5 secs

     total energy              =     -19.19270069 Ry
     Harris-Foulkes estimate   =     -19.19274860 Ry
     estimated scf accuracy    <       0.00031389 Ry

     iteration #  4     ecut=    40.00 Ry     beta=0.30
     Davidson diagonalization with overlap
     ethr =  3.92E-06,  avg # of iterations =  3.7

     total cpu time spent up to now is       16.3 secs

     total energy              =     -19.19278405 Ry
     Harris-Foulkes estimate   =     -19.19278283 Ry
     estimated scf accuracy    <       0.00000446 Ry

     iteration #  5     ecut=    40.00 Ry     beta=0.30
     Davidson diagonalization with overlap
     ethr =  5.57E-08,  avg # of iterations =  3.1

     total cpu time spent up to now is       19.4 secs

     End of self-consistent calculation

     Number of k-points >= 100: set verbosity='high' to print the bands.

     the Fermi energy is     6.2814 ev

!    total energy              =     -19.19278518 Ry
     Harris-Foulkes estimate   =     -19.19278477 Ry
     estimated scf accuracy    <       0.00000031 Ry

     The total energy is the sum of the following terms:

     one-electron contribution =       4.94801463 Ry
     hartree contribution      =       1.13608585 Ry
     xc contribution           =      -8.59701583 Ry
     ewald contribution        =     -16.67986983 Ry
     smearing contrib. (-TS)   =      -0.00000000 Ry

     convergence has been achieved in   5 iterations

     Forces acting on atoms (Ry/au):

     atom    1 type  1   force =     0.00000001    0.00000014    0.00000000
     atom    2 type  1   force =    -0.00000001   -0.00000014    0.00000000

     Total force =     0.000000     Total SCF correction =     0.000003
     SCF correction compared to forces is large: reduce conv_thr to get better values


     entering subroutine stress ...

          total   stress  (Ry/bohr**3)                   (kbar)     P=   -0.39
  -0.00000265   0.00000000   0.00000000         -0.39      0.00      0.00
   0.00000000  -0.00000267  -0.00000000          0.00     -0.39     -0.00
   0.00000000   0.00000000  -0.00000264          0.00      0.00     -0.39


     Writing output data file __prefix__.save
 
     init_run     :      1.10s CPU      1.13s WALL (       1 calls)
     electrons    :     17.53s CPU     18.26s WALL (       1 calls)
     forces       :      0.20s CPU      0.23s WALL (       1 calls)
     stress       :      0.73s CPU      0.77s WALL (       1 calls)

     Called by init_run:
     wfcinit      :      0.84s CPU      0.85s WALL (       1 calls)
     potinit      :      0.04s CPU      0.04s WALL (       1 calls)

     Called by electrons:
     c_bands      :     14.53s CPU     14.64s WALL (       6 calls)
     sum_band     :      2.75s CPU      3.26s WALL (       6 calls)
     v_of_rho     :      0.13s CPU      0.14s WALL (       6 calls)
     newd         :      0.15s CPU      0.25s WALL (       6 calls)
     mix_rho      :      0.01s CPU      0.01s WALL (       6 calls)

     Called by c_bands:
     init_us_2    :      0.40s CPU      0.39s WALL (    1500 calls)
     cegterg      :     12.83s CPU     12.94s WALL (     600 calls)

     Called by sum_band:
     sum_band:bec :      0.00s CPU      0.00s WALL (     600 calls)
     addusdens    :      0.21s CPU      0.71s WALL (       6 calls)

     Called by *egterg:
     h_psi        :     12.60s CPU     12.70s WALL (    2167 calls)
     s_psi        :      0.21s CPU      0.20s WALL (    2167 calls)
     g_psi        :      0.06s CPU      0.07s WALL (    1467 calls)
     cdiaghg      :      0.22s CPU      0.22s WALL (    1967 calls)

     Called by h_psi:
     add_vuspsi   :      0.20s CPU      0.20s WALL (    2167 calls)

     General routines
     calbec       :      0.34s CPU      0.32s WALL (    3267 calls)
     fft          :      0.12s CPU      0.12s WALL (     121 calls)
     ffts         :      0.01s CPU      0.01s WALL (      12 calls)
     fftw         :     13.35s CPU     13.27s WALL (   31976 calls)
     interpolate  :      0.02s CPU      0.02s WALL (      12 calls)
 
     Parallel routines
     fft_scatter  :      0.43s CPU      0.67s WALL (   32109 calls)
 
     PWSCF        :    19.77s CPU        21.15s WALL

 
   This run was terminated on:   3:18:21  24Jan2018            

=------------------------------------------------------------------------------=
   JOB DONE.
=------------------------------------------------------------------------------=
