
     Program PWSCF v.5.4.0 starts on 24Jan2018 at  3:15:26 

     This program is part of the open-source Quantum ESPRESSO suite
     for quantum simulation of materials; please cite
         "P. Giannozzi et al., J. Phys.:Condens. Matter 21 395502 (2009);
          URL http://www.quantum-espresso.org", 
     in publications or presentations arising from this work. More details at
     http://www.quantum-espresso.org/quote

     Parallel version (MPI & OpenMP), running on       1 processor cores
     Number of MPI processes:                 1
     Threads/MPI process:                     1
     Reading input from pw_scf.in
Warning: card &IONS ignored
Warning: card / ignored
Warning: card &CELL ignored
Warning: card / ignored

     Current dimensions of program PWSCF are:
     Max number of different atomic species (ntypx) = 10
     Max number of k-points (npk) =  40000
     Max angular momentum in pseudopotentials (lmaxx) =  3

     Subspace diagonalization in iterative solution of the eigenvalue problem:
     a serial algorithm will be used

 
     G-vector sticks info
     --------------------
     sticks:   dense  smooth     PW     G-vecs:    dense   smooth      PW
     Sum         745     583    187                13323     9409    1639
 


     bravais-lattice index     =            0
     lattice parameter (alat)  =       7.3076  a.u.
     unit-cell volume          =     275.9333 (a.u.)^3
     number of atoms/cell      =            2
     number of atomic types    =            1
     number of electrons       =         8.00
     number of Kohn-Sham states=            8
     kinetic-energy cutoff     =      40.0000  Ry
     charge density cutoff     =     200.0000  Ry
     convergence threshold     =      1.0E-06
     mixing beta               =       0.3000
     number of iterations used =            8  plain     mixing
     Exchange-correlation      = SLA  PW   PBE  PBE ( 1  4  3  4 0 0)

     celldm(1)=   7.307571  celldm(2)=   0.000000  celldm(3)=   0.000000
     celldm(4)=   0.000000  celldm(5)=   0.000000  celldm(6)=   0.000000

     crystal axes: (cart. coord. in units of alat)
               a(1) = (   0.866025   0.000000   0.500000 )  
               a(2) = (   0.288675   0.816497   0.500000 )  
               a(3) = (   0.000000   0.000000   1.000000 )  

     reciprocal axes: (cart. coord. in units 2 pi/alat)
               b(1) = (  1.154701 -0.408248  0.000000 )  
               b(2) = (  0.000000  1.224745  0.000000 )  
               b(3) = ( -0.577350 -0.408248  1.000000 )  


     PseudoPot. # 1 for Si read from file:
     /home/pcje/data/pcje-default/si2-666-jan-23-2018-19-14-pm-nvn9YzcGGKyaBqT2E/pseudo/si_pbe_gbrv_1.0.upf
     MD5 check sum: a056efeee980c13900f22a371efd63c1
     Pseudo is Ultrasoft + core correction, Zval =  4.0
     Generated by new atomic code, or converted to UPF format
     Using radial grid of  899 points,  6 beta functions with: 
                l(1) =   0
                l(2) =   0
                l(3) =   1
                l(4) =   1
                l(5) =   2
                l(6) =   2
     Q(r) pseudized with  8 coefficients,  rinner =    0.900   0.900   0.900
                                                       0.900   0.900

     atomic species   valence    mass     pseudopotential
        Si             4.00    28.08550     Si( 1.00)

      4 Sym. Ops., with inversion, found ( 2 have fractional translation)



   Cartesian axes

     site n.     atom                  positions (alat units)
         1           Si  tau(   1) = (   0.0000000   0.0000000   0.0000000  )
         2           Si  tau(   2) = (   0.2886752   0.2041241   0.5000000  )

     number of k points=    68  gaussian smearing, width (Ry)=  0.0050
                       cart. coord. in units 2pi/alat
        k(    1) = (   0.0000000   0.0000000   0.0000000), wk =   0.0092593
        k(    2) = (  -0.0962250  -0.0680414   0.1666667), wk =   0.0370370
        k(    3) = (  -0.1924501  -0.1360827   0.3333333), wk =   0.0370370
        k(    4) = (   0.2886751   0.2041241  -0.5000000), wk =   0.0185185
        k(    5) = (   0.0000000   0.2041242   0.0000000), wk =   0.0185185
        k(    6) = (  -0.0962250   0.1360828   0.1666667), wk =   0.0370370
        k(    7) = (  -0.1924501   0.0680414   0.3333333), wk =   0.0370370
        k(    8) = (   0.2886751   0.4082483  -0.5000000), wk =   0.0370370
        k(    9) = (   0.1924501   0.3402069  -0.3333333), wk =   0.0370370
        k(   10) = (   0.0962250   0.2721655  -0.1666667), wk =   0.0370370
        k(   11) = (   0.0000000   0.4082483   0.0000000), wk =   0.0185185
        k(   12) = (  -0.0962250   0.3402069   0.1666667), wk =   0.0370370
        k(   13) = (  -0.1924501   0.2721656   0.3333333), wk =   0.0370370
        k(   14) = (   0.2886751   0.6123724  -0.5000000), wk =   0.0370370
        k(   15) = (   0.1924501   0.5443311  -0.3333333), wk =   0.0370370
        k(   16) = (   0.0962250   0.4762897  -0.1666667), wk =   0.0370370
        k(   17) = (   0.0000000  -0.6123725   0.0000000), wk =   0.0092593
        k(   18) = (  -0.0962250  -0.6804138   0.1666667), wk =   0.0370370
        k(   19) = (  -0.1924501  -0.7484552   0.3333333), wk =   0.0370370
        k(   20) = (   0.2886751  -0.4082483  -0.5000000), wk =   0.0185185
        k(   21) = (   0.1924501  -0.0680414   0.0000000), wk =   0.0185185
        k(   22) = (   0.0000000  -0.2041242   0.3333333), wk =   0.0370370
        k(   23) = (   0.4811252   0.1360827  -0.5000000), wk =   0.0370370
        k(   24) = (   0.3849002   0.0680413  -0.3333333), wk =   0.0370370
        k(   25) = (   0.2886751  -0.0000000  -0.1666667), wk =   0.0370370
        k(   26) = (   0.1924501   0.1360827   0.0000000), wk =   0.0185185
        k(   27) = (   0.0000000   0.0000000   0.3333333), wk =   0.0185185
        k(   28) = (   0.4811252   0.3402069  -0.5000000), wk =   0.0370370
        k(   29) = (   0.3849002   0.2721655  -0.3333333), wk =   0.0370370
        k(   30) = (   0.2886751   0.2041241  -0.1666667), wk =   0.0370370
        k(   31) = (   0.1924501   0.3402069   0.0000000), wk =   0.0185185
        k(   32) = (   0.4811252   0.5443310  -0.5000000), wk =   0.0370370
        k(   33) = (   0.3849002   0.4762896  -0.3333333), wk =   0.0370370
        k(   34) = (   0.2886751   0.4082483  -0.1666667), wk =   0.0370370
        k(   35) = (   0.1924501  -0.6804139   0.0000000), wk =   0.0185185
        k(   36) = (   0.0000000  -0.8164966   0.3333333), wk =   0.0370370
        k(   37) = (   0.4811252  -0.4762897  -0.5000000), wk =   0.0370370
        k(   38) = (   0.3849002  -0.5443311  -0.3333333), wk =   0.0370370
        k(   39) = (   0.2886751  -0.6123725  -0.1666667), wk =   0.0370370
        k(   40) = (   0.1924501  -0.4762897   0.0000000), wk =   0.0185185
        k(   41) = (   0.0000000  -0.6123725   0.3333333), wk =   0.0185185
        k(   42) = (   0.4811252  -0.2721656  -0.5000000), wk =   0.0370370
        k(   43) = (   0.3849002  -0.3402070  -0.3333333), wk =   0.0370370
        k(   44) = (   0.2886751  -0.4082483  -0.1666667), wk =   0.0370370
        k(   45) = (   0.1924501  -0.2721656   0.0000000), wk =   0.0185185
        k(   46) = (   0.4811252  -0.0680414  -0.5000000), wk =   0.0370370
        k(   47) = (   0.3849002  -0.1360828  -0.3333333), wk =   0.0370370
        k(   48) = (   0.2886751  -0.2041242  -0.1666667), wk =   0.0370370
        k(   49) = (   0.3849002  -0.1360828   0.0000000), wk =   0.0185185
        k(   50) = (   0.5773503  -0.0000001  -0.3333333), wk =   0.0370370
        k(   51) = (   0.4811252  -0.0680414  -0.1666667), wk =   0.0370370
        k(   52) = (   0.3849002   0.0680413   0.0000000), wk =   0.0185185
        k(   53) = (   0.5773503   0.2041241  -0.3333333), wk =   0.0370370
        k(   54) = (   0.4811252   0.1360827  -0.1666667), wk =   0.0370370
        k(   55) = (   0.3849002   0.2721655   0.0000000), wk =   0.0185185
        k(   56) = (   0.5773503   0.4082482  -0.3333333), wk =   0.0185185
        k(   57) = (   0.4811252   0.3402069  -0.1666667), wk =   0.0370370
        k(   58) = (   0.3849002  -0.7484553   0.0000000), wk =   0.0185185
        k(   59) = (   0.4811252  -0.6804139  -0.1666667), wk =   0.0370370
        k(   60) = (   0.3849002  -0.5443311   0.0000000), wk =   0.0185185
        k(   61) = (   0.4811252  -0.4762897  -0.1666667), wk =   0.0370370
        k(   62) = (   0.3849002  -0.3402070   0.0000000), wk =   0.0185185
        k(   63) = (   0.5773503  -0.2041242  -0.3333333), wk =   0.0185185
        k(   64) = (   0.4811252  -0.2721656  -0.1666667), wk =   0.0370370
        k(   65) = (  -0.5773503   0.2041242   0.0000000), wk =   0.0092593
        k(   66) = (  -0.5773503   0.4082484   0.0000000), wk =   0.0185185
        k(   67) = (  -0.5773503   0.6123725   0.0000000), wk =   0.0185185
        k(   68) = (  -0.5773503  -0.4082482   0.0000000), wk =   0.0092593

     Dense  grid:    13323 G-vectors     FFT dimensions: (  36,  36,  36)

     Smooth grid:     9409 G-vectors     FFT dimensions: (  30,  30,  30)

     Largest allocated arrays     est. size (Mb)     dimensions
        Kohn-Sham Wavefunctions         0.15 Mb     (    1243,    8)
        NL pseudopotentials             0.68 Mb     (    1243,   36)
        Each V/rho on FFT grid          0.71 Mb     (   46656)
        Each G-vector array             0.10 Mb     (   13323)
        G-vector shells                 0.03 Mb     (    3473)
     Largest temporary arrays     est. size (Mb)     dimensions
        Auxiliary wavefunctions         0.61 Mb     (    1243,   32)
        Each subspace H/S matrix        0.02 Mb     (      32,   32)
        Each <psi_i|beta_j> matrix      0.00 Mb     (      36,    8)
        Arrays for rho mixing           5.70 Mb     (   46656,    8)

     Initial potential from superposition of free atoms

     starting charge    7.99866, renormalised to    8.00000
     Starting wfc are    8 randomized atomic wfcs

     total cpu time spent up to now is        1.0 secs

     per-process dynamical memory:    38.2 Mb

     Self-consistent Calculation

     iteration #  1     ecut=    40.00 Ry     beta=0.30
     Davidson diagonalization with overlap
     ethr =  1.00E-02,  avg # of iterations =  3.5

     Threshold (ethr) on eigenvalues was too large:
     Diagonalizing with lowered threshold

     Davidson diagonalization with overlap
     ethr =  7.03E-04,  avg # of iterations =  2.3

     total cpu time spent up to now is        5.2 secs

     total energy              =     -19.19514495 Ry
     Harris-Foulkes estimate   =     -19.20241764 Ry
     estimated scf accuracy    <       0.05554549 Ry

     iteration #  2     ecut=    40.00 Ry     beta=0.30
     Davidson diagonalization with overlap
     ethr =  6.94E-04,  avg # of iterations =  1.0

     total cpu time spent up to now is        6.9 secs

     total energy              =     -19.19047877 Ry
     Harris-Foulkes estimate   =     -19.19567541 Ry
     estimated scf accuracy    <       0.02334111 Ry

     iteration #  3     ecut=    40.00 Ry     beta=0.30
     Davidson diagonalization with overlap
     ethr =  2.92E-04,  avg # of iterations =  1.2

     total cpu time spent up to now is        8.6 secs

     total energy              =     -19.19165643 Ry
     Harris-Foulkes estimate   =     -19.19170032 Ry
     estimated scf accuracy    <       0.00031571 Ry

     iteration #  4     ecut=    40.00 Ry     beta=0.30
     Davidson diagonalization with overlap
     ethr =  3.95E-06,  avg # of iterations =  3.6

     total cpu time spent up to now is       11.1 secs

     total energy              =     -19.19173723 Ry
     Harris-Foulkes estimate   =     -19.19173623 Ry
     estimated scf accuracy    <       0.00000515 Ry

     iteration #  5     ecut=    40.00 Ry     beta=0.30
     Davidson diagonalization with overlap
     ethr =  6.44E-08,  avg # of iterations =  3.1

     total cpu time spent up to now is       13.2 secs

     End of self-consistent calculation

          k = 0.0000 0.0000 0.0000 (  1243 PWs)   bands (ev):

    -5.8344   5.9827   5.9827   5.9827   8.5377   8.5377   8.5377   9.1051

          k =-0.0962-0.0680 0.1667 (  1197 PWs)   bands (ev):

    -5.4798   3.6173   5.5410   5.5410   8.2649   9.1737   9.1738  11.2535

          k =-0.1925-0.1361 0.3333 (  1176 PWs)   bands (ev):

    -4.4846   0.7102   4.9982   4.9982   7.6723   9.4870   9.4870  13.7614

          k = 0.2887 0.2041-0.5000 (  1170 PWs)   bands (ev):

    -3.5560  -0.8892   4.8019   4.8019   7.4466   9.3340   9.3340  13.6826

          k = 0.0000 0.2041 0.0000 (  1197 PWs)   bands (ev):

    -5.4798   3.6173   5.5410   5.5410   8.2649   9.1737   9.1738  11.2535

          k =-0.0962 0.1361 0.1667 (  1187 PWs)   bands (ev):

    -5.3591   3.9262   4.8162   4.8162   7.6961  10.1899  10.2837  10.2837

          k =-0.1925 0.0680 0.3333 (  1176 PWs)   bands (ev):

    -4.5593   1.5769   4.0201   4.2717   7.9514   9.9871  10.4868  11.0167

          k = 0.2887 0.4082-0.5000 (  1177 PWs)   bands (ev):

    -3.3965  -0.5443   3.2488   4.2395   8.0226  10.0438  10.5890  12.3477

          k = 0.1925 0.3402-0.3333 (  1174 PWs)   bands (ev):

    -3.7711   0.0404   2.9885   4.7075   8.4078  10.0658  10.1975  13.1748

          k = 0.0962 0.2722-0.1667 (  1175 PWs)   bands (ev):

    -4.9027   2.2829   3.6234   5.4246   8.9582   9.5182   9.7951  11.5624

          k = 0.0000 0.4082 0.0000 (  1176 PWs)   bands (ev):

    -4.4846   0.7102   4.9982   4.9982   7.6723   9.4870   9.4870  13.7614

          k =-0.0962 0.3402 0.1667 (  1176 PWs)   bands (ev):

    -4.5593   1.5769   4.0201   4.2717   7.9514   9.9871  10.4868  11.0167

          k =-0.1925 0.2722 0.3333 (  1174 PWs)   bands (ev):

    -3.9650   0.9895   3.6128   3.6128   6.7414   8.0063  13.1548  13.1548

          k = 0.2887 0.6124-0.5000 (  1185 PWs)   bands (ev):

    -2.8250  -0.5378   2.4306   3.4778   7.0800   8.7065  13.3474  13.3612

          k = 0.1925 0.5443-0.3333 (  1182 PWs)   bands (ev):

    -2.6382  -0.7338   1.6694   3.9109   7.5715  11.7642  12.3883  12.9517

          k = 0.0962 0.4763-0.1667 (  1174 PWs)   bands (ev):

    -3.7711   0.0404   2.9885   4.7075   8.4078  10.0658  10.1975  13.1748

          k = 0.0000-0.6124 0.0000 (  1170 PWs)   bands (ev):

    -3.5560  -0.8891   4.8019   4.8019   7.4466   9.3340   9.3340  13.6826

          k =-0.0962-0.6804 0.1667 (  1177 PWs)   bands (ev):

    -3.3965  -0.5443   3.2488   4.2395   8.0226  10.0438  10.5890  12.3477

          k =-0.1925-0.7485 0.3333 (  1185 PWs)   bands (ev):

    -2.8250  -0.5378   2.4306   3.4778   7.0800   8.7065  13.3474  13.3612

          k = 0.2887-0.4082-0.5000 (  1162 PWs)   bands (ev):

    -1.7666  -1.7666   3.1852   3.1852   6.7358   6.7358  15.9105  15.9105

          k = 0.1925-0.0680 0.0000 (  1197 PWs)   bands (ev):

    -5.4798   3.6173   5.5410   5.5410   8.2649   9.1737   9.1738  11.2535

          k = 0.0000-0.2041 0.3333 (  1176 PWs)   bands (ev):

    -4.5593   1.5769   4.0201   4.2717   7.9514   9.9870  10.4868  11.0167

          k = 0.4811 0.1361-0.5000 (  1177 PWs)   bands (ev):

    -3.3965  -0.5443   3.2487   4.2395   8.0226  10.0438  10.5890  12.3477

          k = 0.3849 0.0680-0.3333 (  1174 PWs)   bands (ev):

    -3.7711   0.0404   2.9885   4.7075   8.4078  10.0658  10.1975  13.1748

          k = 0.2887-0.0000-0.1667 (  1175 PWs)   bands (ev):

    -4.9027   2.2829   3.6234   5.4246   8.9582   9.5181   9.7951  11.5624

          k = 0.1925 0.1361 0.0000 (  1187 PWs)   bands (ev):

    -5.3591   3.9262   4.8162   4.8162   7.6961  10.1899  10.2837  10.2837

          k = 0.0000 0.0000 0.3333 (  1175 PWs)   bands (ev):

    -4.9027   2.2829   3.6234   5.4246   8.9582   9.5182   9.7951  11.5624

          k = 0.4811 0.3402-0.5000 (  1174 PWs)   bands (ev):

    -3.7711   0.0404   2.9885   4.7075   8.4078  10.0658  10.1975  13.1748

          k = 0.3849 0.2722-0.3333 (  1177 PWs)   bands (ev):

    -3.3965  -0.5443   3.2488   4.2395   8.0226  10.0438  10.5890  12.3477

          k = 0.2887 0.2041-0.1667 (  1176 PWs)   bands (ev):

    -4.5593   1.5769   4.0201   4.2717   7.9514   9.9870  10.4868  11.0167

          k = 0.1925 0.3402 0.0000 (  1176 PWs)   bands (ev):

    -4.5593   1.5769   4.0201   4.2717   7.9514   9.9871  10.4868  11.0167

          k = 0.4811 0.5443-0.5000 (  1173 PWs)   bands (ev):

    -3.5891   0.3718   2.4899   3.7370   8.8282   9.7048  10.1593  12.9660

          k = 0.3849 0.4763-0.3333 (  1176 PWs)   bands (ev):

    -2.6290  -0.8001   2.0554   3.2831   9.3502   9.5002  12.0419  12.4198

          k = 0.2887 0.4082-0.1667 (  1173 PWs)   bands (ev):

    -3.5891   0.3718   2.4899   3.7370   8.8282   9.7048  10.1593  12.9660

          k = 0.1925-0.6804 0.0000 (  1177 PWs)   bands (ev):

    -3.3965  -0.5443   3.2487   4.2395   8.0226  10.0438  10.5890  12.3477

          k = 0.0000-0.8165 0.3333 (  1173 PWs)   bands (ev):

    -3.5891   0.3718   2.4899   3.7370   8.8282   9.7048  10.1593  12.9660

          k = 0.4811-0.4763-0.5000 (  1185 PWs)   bands (ev):

    -2.8250  -0.5378   2.4306   3.4778   7.0800   8.7065  13.3474  13.3612

          k = 0.3849-0.5443-0.3333 (  1182 PWs)   bands (ev):

    -1.6534  -1.6534   2.4199   2.4199   8.7356   8.7356  12.6700  12.6700

          k = 0.2887-0.6124-0.1667 (  1176 PWs)   bands (ev):

    -2.6290  -0.8001   2.0554   3.2831   9.3502   9.5002  12.0419  12.4198

          k = 0.1925-0.4763 0.0000 (  1174 PWs)   bands (ev):

    -3.7711   0.0404   2.9885   4.7075   8.4078  10.0658  10.1975  13.1748

          k = 0.0000-0.6124 0.3333 (  1176 PWs)   bands (ev):

    -2.6290  -0.8001   2.0554   3.2831   9.3502   9.5002  12.0419  12.4198

          k = 0.4811-0.2722-0.5000 (  1182 PWs)   bands (ev):

    -1.6534  -1.6534   2.4199   2.4199   8.7356   8.7356  12.6700  12.6700

          k = 0.3849-0.3402-0.3333 (  1185 PWs)   bands (ev):

    -2.8250  -0.5378   2.4306   3.4778   7.0800   8.7065  13.3474  13.3612

          k = 0.2887-0.4082-0.1667 (  1173 PWs)   bands (ev):

    -3.5891   0.3718   2.4899   3.7370   8.8282   9.7048  10.1593  12.9660

          k = 0.1925-0.2722 0.0000 (  1175 PWs)   bands (ev):

    -4.9027   2.2829   3.6234   5.4246   8.9582   9.5181   9.7951  11.5624

          k = 0.4811-0.0680-0.5000 (  1176 PWs)   bands (ev):

    -2.6290  -0.8001   2.0554   3.2831   9.3502   9.5002  12.0419  12.4198

          k = 0.3849-0.1361-0.3333 (  1173 PWs)   bands (ev):

    -3.5891   0.3718   2.4899   3.7370   8.8282   9.7048  10.1593  12.9660

          k = 0.2887-0.2041-0.1667 (  1176 PWs)   bands (ev):

    -4.5593   1.5769   4.0201   4.2717   7.9514   9.9870  10.4868  11.0167

          k = 0.3849-0.1361 0.0000 (  1176 PWs)   bands (ev):

    -4.4846   0.7102   4.9982   4.9982   7.6723   9.4870   9.4870  13.7614

          k = 0.5774-0.0000-0.3333 (  1182 PWs)   bands (ev):

    -2.6382  -0.7338   1.6694   3.9110   7.5715  11.7641  12.3883  12.9517

          k = 0.4811-0.0680-0.1667 (  1174 PWs)   bands (ev):

    -3.7711   0.0404   2.9885   4.7075   8.4078  10.0658  10.1975  13.1748

          k = 0.3849 0.0680 0.0000 (  1176 PWs)   bands (ev):

    -4.5593   1.5769   4.0201   4.2717   7.9514   9.9871  10.4868  11.0167

          k = 0.5774 0.2041-0.3333 (  1176 PWs)   bands (ev):

    -2.6290  -0.8001   2.0554   3.2831   9.3502   9.5002  12.0419  12.4198

          k = 0.4811 0.1361-0.1667 (  1173 PWs)   bands (ev):

    -3.5891   0.3718   2.4899   3.7370   8.8282   9.7048  10.1593  12.9660

          k = 0.3849 0.2722 0.0000 (  1174 PWs)   bands (ev):

    -3.9650   0.9895   3.6128   3.6128   6.7414   8.0063  13.1548  13.1548

          k = 0.5774 0.4082-0.3333 (  1182 PWs)   bands (ev):

    -2.6382  -0.7338   1.6694   3.9110   7.5715  11.7642  12.3883  12.9517

          k = 0.4811 0.3402-0.1667 (  1185 PWs)   bands (ev):

    -2.8250  -0.5378   2.4306   3.4778   7.0800   8.7065  13.3474  13.3612

          k = 0.3849-0.7485 0.0000 (  1185 PWs)   bands (ev):

    -2.8250  -0.5378   2.4306   3.4778   7.0800   8.7065  13.3474  13.3612

          k = 0.4811-0.6804-0.1667 (  1182 PWs)   bands (ev):

    -1.6534  -1.6534   2.4199   2.4199   8.7356   8.7356  12.6700  12.6700

          k = 0.3849-0.5443 0.0000 (  1182 PWs)   bands (ev):

    -2.6382  -0.7338   1.6694   3.9109   7.5715  11.7641  12.3883  12.9517

          k = 0.4811-0.4763-0.1667 (  1176 PWs)   bands (ev):

    -2.6290  -0.8001   2.0554   3.2831   9.3502   9.5002  12.0419  12.4198

          k = 0.3849-0.3402 0.0000 (  1174 PWs)   bands (ev):

    -3.7711   0.0404   2.9885   4.7075   8.4078  10.0658  10.1975  13.1748

          k = 0.5774-0.2041-0.3333 (  1176 PWs)   bands (ev):

    -2.6290  -0.8001   2.0554   3.2831   9.3502   9.5002  12.0419  12.4198

          k = 0.4811-0.2722-0.1667 (  1177 PWs)   bands (ev):

    -3.3965  -0.5443   3.2488   4.2395   8.0226  10.0438  10.5890  12.3477

          k =-0.5774 0.2041 0.0000 (  1170 PWs)   bands (ev):

    -3.5560  -0.8892   4.8019   4.8019   7.4466   9.3340   9.3340  13.6826

          k =-0.5774 0.4082 0.0000 (  1177 PWs)   bands (ev):

    -3.3965  -0.5443   3.2488   4.2395   8.0226  10.0438  10.5890  12.3477

          k =-0.5774 0.6124 0.0000 (  1185 PWs)   bands (ev):

    -2.8250  -0.5378   2.4306   3.4778   7.0800   8.7065  13.3474  13.3612

          k =-0.5774-0.4082 0.0000 (  1162 PWs)   bands (ev):

    -1.7666  -1.7666   3.1852   3.1852   6.7358   6.7358  15.9105  15.9105

     the Fermi energy is     6.4141 ev

!    total energy              =     -19.19173883 Ry
     Harris-Foulkes estimate   =     -19.19173841 Ry
     estimated scf accuracy    <       0.00000030 Ry

     The total energy is the sum of the following terms:

     one-electron contribution =       4.94774191 Ry
     hartree contribution      =       1.13856609 Ry
     xc contribution           =      -8.59817701 Ry
     ewald contribution        =     -16.67986983 Ry
     smearing contrib. (-TS)   =      -0.00000000 Ry

     convergence has been achieved in   5 iterations

     Forces acting on atoms (Ry/au):

     atom    1 type  1   force =     0.00000039   -0.00000096    0.00000000
     atom    2 type  1   force =    -0.00000039    0.00000096    0.00000000

     Total force =     0.000001     Total SCF correction =     0.000002
     SCF correction compared to forces is large: reduce conv_thr to get better values


     entering subroutine stress ...

          total   stress  (Ry/bohr**3)                   (kbar)     P=    0.05
   0.00000032   0.00000000   0.00000000          0.05      0.00      0.00
   0.00000000   0.00000032  -0.00000000          0.00      0.05     -0.00
   0.00000000  -0.00000000   0.00000033          0.00     -0.00      0.05


     Writing output data file __prefix__.save
 
     init_run     :      0.83s CPU      0.96s WALL (       1 calls)
     electrons    :     11.94s CPU     12.25s WALL (       1 calls)
     forces       :      0.18s CPU      0.20s WALL (       1 calls)
     stress       :      0.58s CPU      0.65s WALL (       1 calls)

     Called by init_run:
     wfcinit      :      0.57s CPU      0.57s WALL (       1 calls)
     potinit      :      0.04s CPU      0.05s WALL (       1 calls)

     Called by electrons:
     c_bands      :      9.78s CPU      9.86s WALL (       6 calls)
     sum_band     :      1.91s CPU      2.05s WALL (       6 calls)
     v_of_rho     :      0.13s CPU      0.14s WALL (       6 calls)
     newd         :      0.14s CPU      0.35s WALL (       6 calls)
     mix_rho      :      0.01s CPU      0.01s WALL (       6 calls)

     Called by c_bands:
     init_us_2    :      0.26s CPU      0.26s WALL (    1020 calls)
     cegterg      :      8.64s CPU      8.70s WALL (     408 calls)

     Called by sum_band:
     sum_band:bec :      0.00s CPU      0.00s WALL (     408 calls)
     addusdens    :      0.20s CPU      0.33s WALL (       6 calls)

     Called by *egterg:
     h_psi        :      8.49s CPU      8.56s WALL (    1480 calls)
     s_psi        :      0.14s CPU      0.13s WALL (    1480 calls)
     g_psi        :      0.04s CPU      0.04s WALL (    1004 calls)
     cdiaghg      :      0.14s CPU      0.15s WALL (    1344 calls)

     Called by h_psi:
     add_vuspsi   :      0.13s CPU      0.13s WALL (    1480 calls)

     General routines
     calbec       :      0.23s CPU      0.22s WALL (    2228 calls)
     fft          :      0.12s CPU      0.12s WALL (     121 calls)
     ffts         :      0.01s CPU      0.01s WALL (      12 calls)
     fftw         :      8.96s CPU      8.93s WALL (   21702 calls)
     interpolate  :      0.02s CPU      0.02s WALL (      12 calls)
 
     Parallel routines
     fft_scatter  :      0.31s CPU      0.45s WALL (   21835 calls)
 
     PWSCF        :    13.67s CPU        14.67s WALL

 
   This run was terminated on:   3:15:40  24Jan2018            

=------------------------------------------------------------------------------=
   JOB DONE.
=------------------------------------------------------------------------------=
