
     Program PWSCF v.5.4.0 starts on 24Jan2018 at  3:13:38 

     This program is part of the open-source Quantum ESPRESSO suite
     for quantum simulation of materials; please cite
         "P. Giannozzi et al., J. Phys.:Condens. Matter 21 395502 (2009);
          URL http://www.quantum-espresso.org", 
     in publications or presentations arising from this work. More details at
     http://www.quantum-espresso.org/quote

     Parallel version (MPI & OpenMP), running on       1 processor cores
     Number of MPI processes:                 1
     Threads/MPI process:                     1
     Reading input from pw_scf.in
Warning: card &IONS ignored
Warning: card / ignored
Warning: card &CELL ignored
Warning: card / ignored

     Current dimensions of program PWSCF are:
     Max number of different atomic species (ntypx) = 10
     Max number of k-points (npk) =  40000
     Max angular momentum in pseudopotentials (lmaxx) =  3

     Subspace diagonalization in iterative solution of the eigenvalue problem:
     a serial algorithm will be used

 
     G-vector sticks info
     --------------------
     sticks:   dense  smooth     PW     G-vecs:    dense   smooth      PW
     Sum         745     583    187                13323     9409    1639
 


     bravais-lattice index     =            0
     lattice parameter (alat)  =       7.3076  a.u.
     unit-cell volume          =     275.9333 (a.u.)^3
     number of atoms/cell      =            2
     number of atomic types    =            1
     number of electrons       =         8.00
     number of Kohn-Sham states=            8
     kinetic-energy cutoff     =      40.0000  Ry
     charge density cutoff     =     200.0000  Ry
     convergence threshold     =      1.0E-06
     mixing beta               =       0.3000
     number of iterations used =            8  plain     mixing
     Exchange-correlation      = SLA  PW   PBE  PBE ( 1  4  3  4 0 0)

     celldm(1)=   7.307571  celldm(2)=   0.000000  celldm(3)=   0.000000
     celldm(4)=   0.000000  celldm(5)=   0.000000  celldm(6)=   0.000000

     crystal axes: (cart. coord. in units of alat)
               a(1) = (   0.866025   0.000000   0.500000 )  
               a(2) = (   0.288675   0.816497   0.500000 )  
               a(3) = (   0.000000   0.000000   1.000000 )  

     reciprocal axes: (cart. coord. in units 2 pi/alat)
               b(1) = (  1.154701 -0.408248  0.000000 )  
               b(2) = (  0.000000  1.224745  0.000000 )  
               b(3) = ( -0.577350 -0.408248  1.000000 )  


     PseudoPot. # 1 for Si read from file:
     /home/pcje/data/pcje-default/si2-444-jan-23-2018-19-13-pm-5HX8LMu86YdFeGMhM/pseudo/si_pbe_gbrv_1.0.upf
     MD5 check sum: a056efeee980c13900f22a371efd63c1
     Pseudo is Ultrasoft + core correction, Zval =  4.0
     Generated by new atomic code, or converted to UPF format
     Using radial grid of  899 points,  6 beta functions with: 
                l(1) =   0
                l(2) =   0
                l(3) =   1
                l(4) =   1
                l(5) =   2
                l(6) =   2
     Q(r) pseudized with  8 coefficients,  rinner =    0.900   0.900   0.900
                                                       0.900   0.900

     atomic species   valence    mass     pseudopotential
        Si             4.00    28.08550     Si( 1.00)

      4 Sym. Ops., with inversion, found ( 2 have fractional translation)



   Cartesian axes

     site n.     atom                  positions (alat units)
         1           Si  tau(   1) = (   0.0000000   0.0000000   0.0000000  )
         2           Si  tau(   2) = (   0.2886752   0.2041241   0.5000000  )

     number of k points=    24  gaussian smearing, width (Ry)=  0.0050
                       cart. coord. in units 2pi/alat
        k(    1) = (   0.0000000   0.0000000   0.0000000), wk =   0.0312500
        k(    2) = (  -0.1443376  -0.1020621   0.2500000), wk =   0.1250000
        k(    3) = (   0.2886751   0.2041241  -0.5000000), wk =   0.0625000
        k(    4) = (   0.0000000   0.3061862   0.0000000), wk =   0.0625000
        k(    5) = (  -0.1443376   0.2041242   0.2500000), wk =   0.1250000
        k(    6) = (   0.2886751   0.5103104  -0.5000000), wk =   0.1250000
        k(    7) = (   0.1443376   0.4082483  -0.2500000), wk =   0.1250000
        k(    8) = (   0.0000000  -0.6123725   0.0000000), wk =   0.0312500
        k(    9) = (  -0.1443376  -0.7144345   0.2500000), wk =   0.1250000
        k(   10) = (   0.2886751  -0.4082483  -0.5000000), wk =   0.0625000
        k(   11) = (   0.2886751  -0.1020621   0.0000000), wk =   0.0625000
        k(   12) = (   0.5773503   0.1020620  -0.5000000), wk =   0.1250000
        k(   13) = (   0.4330127  -0.0000000  -0.2500000), wk =   0.1250000
        k(   14) = (   0.2886751   0.2041241   0.0000000), wk =   0.0625000
        k(   15) = (   0.5773503   0.4082482  -0.5000000), wk =   0.0625000
        k(   16) = (   0.4330127   0.3061862  -0.2500000), wk =   0.1250000
        k(   17) = (   0.2886751  -0.7144346   0.0000000), wk =   0.0625000
        k(   18) = (   0.4330127  -0.6123725  -0.2500000), wk =   0.1250000
        k(   19) = (   0.2886751  -0.4082483   0.0000000), wk =   0.0625000
        k(   20) = (   0.5773503  -0.2041242  -0.5000000), wk =   0.0625000
        k(   21) = (   0.4330127  -0.3061863  -0.2500000), wk =   0.1250000
        k(   22) = (  -0.5773503   0.2041242   0.0000000), wk =   0.0312500
        k(   23) = (  -0.5773503   0.5103104   0.0000000), wk =   0.0625000
        k(   24) = (  -0.5773503  -0.4082482   0.0000000), wk =   0.0312500

     Dense  grid:    13323 G-vectors     FFT dimensions: (  36,  36,  36)

     Smooth grid:     9409 G-vectors     FFT dimensions: (  30,  30,  30)

     Largest allocated arrays     est. size (Mb)     dimensions
        Kohn-Sham Wavefunctions         0.15 Mb     (    1243,    8)
        NL pseudopotentials             0.68 Mb     (    1243,   36)
        Each V/rho on FFT grid          0.71 Mb     (   46656)
        Each G-vector array             0.10 Mb     (   13323)
        G-vector shells                 0.03 Mb     (    3473)
     Largest temporary arrays     est. size (Mb)     dimensions
        Auxiliary wavefunctions         0.61 Mb     (    1243,   32)
        Each subspace H/S matrix        0.02 Mb     (      32,   32)
        Each <psi_i|beta_j> matrix      0.00 Mb     (      36,    8)
        Arrays for rho mixing           5.70 Mb     (   46656,    8)

     Initial potential from superposition of free atoms

     starting charge    7.99866, renormalised to    8.00000
     Starting wfc are    8 randomized atomic wfcs

     total cpu time spent up to now is        0.7 secs

     per-process dynamical memory:    31.1 Mb

     Self-consistent Calculation

     iteration #  1     ecut=    40.00 Ry     beta=0.30
     Davidson diagonalization with overlap
     ethr =  1.00E-02,  avg # of iterations =  3.4

     Threshold (ethr) on eigenvalues was too large:
     Diagonalizing with lowered threshold

     Davidson diagonalization with overlap
     ethr =  7.62E-04,  avg # of iterations =  1.5

     total cpu time spent up to now is        2.2 secs

     total energy              =     -19.18372293 Ry
     Harris-Foulkes estimate   =     -19.19182859 Ry
     estimated scf accuracy    <       0.06063353 Ry

     iteration #  2     ecut=    40.00 Ry     beta=0.30
     Davidson diagonalization with overlap
     ethr =  7.58E-04,  avg # of iterations =  1.0

     total cpu time spent up to now is        2.9 secs

     total energy              =     -19.17850307 Ry
     Harris-Foulkes estimate   =     -19.18427005 Ry
     estimated scf accuracy    <       0.02556483 Ry

     iteration #  3     ecut=    40.00 Ry     beta=0.30
     Davidson diagonalization with overlap
     ethr =  3.20E-04,  avg # of iterations =  1.1

     total cpu time spent up to now is        3.6 secs

     total energy              =     -19.17981868 Ry
     Harris-Foulkes estimate   =     -19.17985532 Ry
     estimated scf accuracy    <       0.00033687 Ry

     iteration #  4     ecut=    40.00 Ry     beta=0.30
     Davidson diagonalization with overlap
     ethr =  4.21E-06,  avg # of iterations =  3.1

     total cpu time spent up to now is        4.6 secs

     total energy              =     -19.17990783 Ry
     Harris-Foulkes estimate   =     -19.17990617 Ry
     estimated scf accuracy    <       0.00000548 Ry

     iteration #  5     ecut=    40.00 Ry     beta=0.30
     Davidson diagonalization with overlap
     ethr =  6.84E-08,  avg # of iterations =  3.0

     total cpu time spent up to now is        5.4 secs

     End of self-consistent calculation

          k = 0.0000 0.0000 0.0000 (  1243 PWs)   bands (ev):

    -5.8062   6.0175   6.0175   6.0175   8.5581   8.5581   8.5581   9.1427

          k =-0.1443-0.1021 0.2500 (  1185 PWs)   bands (ev):

    -5.0210   2.1235   5.2680   5.2681   7.9673   9.4941   9.4941  12.7621

          k = 0.2887 0.2041-0.5000 (  1170 PWs)   bands (ev):

    -3.5254  -0.8624   4.8332   4.8333   7.4762   9.3525   9.3525  13.7071

          k = 0.0000 0.3062 0.0000 (  1185 PWs)   bands (ev):

    -5.0210   2.1235   5.2680   5.2680   7.9673   9.4941   9.4941  12.7621

          k =-0.1443 0.2041 0.2500 (  1174 PWs)   bands (ev):

    -4.7433   2.4956   4.1601   4.1601   7.1561   9.1407  11.6996  11.6996

          k = 0.2887 0.5103-0.5000 (  1178 PWs)   bands (ev):

    -3.1405  -0.3134   2.5435   3.8484   7.5472  10.4415  11.6561  11.8838

          k = 0.1443 0.4082-0.2500 (  1171 PWs)   bands (ev):

    -3.8010   0.5717   2.3358   4.7087   8.4427  10.7514  11.1012  12.0464

          k = 0.0000-0.6124 0.0000 (  1170 PWs)   bands (ev):

    -3.5254  -0.8624   4.8332   4.8333   7.4762   9.3525   9.3525  13.7071

          k =-0.1443-0.7144 0.2500 (  1178 PWs)   bands (ev):

    -3.1405  -0.3134   2.5435   3.8484   7.5472  10.4415  11.6561  11.8838

          k = 0.2887-0.4082-0.5000 (  1162 PWs)   bands (ev):

    -1.7357  -1.7357   3.2123   3.2123   6.7571   6.7571  15.9390  15.9390

          k = 0.2887-0.1021 0.0000 (  1185 PWs)   bands (ev):

    -5.0210   2.1235   5.2680   5.2680   7.9673   9.4941   9.4941  12.7621

          k = 0.5774 0.1021-0.5000 (  1178 PWs)   bands (ev):

    -3.1405  -0.3134   2.5435   3.8484   7.5472  10.4415  11.6561  11.8838

          k = 0.4330-0.0000-0.2500 (  1171 PWs)   bands (ev):

    -3.8010   0.5717   2.3358   4.7087   8.4427  10.7514  11.1013  12.0464

          k = 0.2887 0.2041 0.0000 (  1174 PWs)   bands (ev):

    -4.7433   2.4956   4.1601   4.1601   7.1561   9.1407  11.6996  11.6996

          k = 0.5774 0.4082-0.5000 (  1171 PWs)   bands (ev):

    -3.8010   0.5717   2.3358   4.7087   8.4427  10.7514  11.1012  12.0464

          k = 0.4330 0.3062-0.2500 (  1178 PWs)   bands (ev):

    -3.1405  -0.3134   2.5435   3.8484   7.5472  10.4415  11.6561  11.8838

          k = 0.2887-0.7144 0.0000 (  1178 PWs)   bands (ev):

    -3.1405  -0.3134   2.5435   3.8484   7.5472  10.4415  11.6561  11.8838

          k = 0.4330-0.6124-0.2500 (  1176 PWs)   bands (ev):

    -1.5803  -1.5803   2.2431   2.2431  10.2831  10.2831  10.9354  10.9354

          k = 0.2887-0.4082 0.0000 (  1171 PWs)   bands (ev):

    -3.8010   0.5717   2.3358   4.7087   8.4427  10.7514  11.1012  12.0464

          k = 0.5774-0.2041-0.5000 (  1176 PWs)   bands (ev):

    -1.5803  -1.5803   2.2431   2.2431  10.2831  10.2831  10.9354  10.9354

          k = 0.4330-0.3062-0.2500 (  1178 PWs)   bands (ev):

    -3.1405  -0.3134   2.5435   3.8484   7.5472  10.4415  11.6561  11.8838

          k =-0.5774 0.2041 0.0000 (  1170 PWs)   bands (ev):

    -3.5254  -0.8624   4.8333   4.8333   7.4762   9.3525   9.3525  13.7071

          k =-0.5774 0.5103 0.0000 (  1178 PWs)   bands (ev):

    -3.1405  -0.3134   2.5435   3.8484   7.5472  10.4415  11.6561  11.8838

          k =-0.5774-0.4082 0.0000 (  1162 PWs)   bands (ev):

    -1.7357  -1.7357   3.2123   3.2123   6.7571   6.7571  15.9390  15.9390

     the Fermi energy is     6.4425 ev

!    total energy              =     -19.17990922 Ry
     Harris-Foulkes estimate   =     -19.17990863 Ry
     estimated scf accuracy    <       0.00000040 Ry

     The total energy is the sum of the following terms:

     one-electron contribution =       4.94930835 Ry
     hartree contribution      =       1.15802887 Ry
     xc contribution           =      -8.60737661 Ry
     ewald contribution        =     -16.67986983 Ry
     smearing contrib. (-TS)   =      -0.00000000 Ry

     convergence has been achieved in   5 iterations

     Forces acting on atoms (Ry/au):

     atom    1 type  1   force =     0.00000123    0.00000052    0.00000000
     atom    2 type  1   force =    -0.00000123   -0.00000052    0.00000000

     Total force =     0.000002     Total SCF correction =     0.000003
     SCF correction compared to forces is large: reduce conv_thr to get better values


     entering subroutine stress ...

          total   stress  (Ry/bohr**3)                   (kbar)     P=    5.14
   0.00003495  -0.00000001   0.00000000          5.14     -0.00      0.00
  -0.00000001   0.00003494  -0.00000000         -0.00      5.14     -0.00
   0.00000000   0.00000000   0.00003491          0.00      0.00      5.13


     Writing output data file __prefix__.save
 
     init_run     :      0.45s CPU      0.65s WALL (       1 calls)
     electrons    :      4.46s CPU      4.77s WALL (       1 calls)
     forces       :      0.12s CPU      0.14s WALL (       1 calls)
     stress       :      0.40s CPU      0.46s WALL (       1 calls)

     Called by init_run:
     wfcinit      :      0.20s CPU      0.20s WALL (       1 calls)
     potinit      :      0.04s CPU      0.04s WALL (       1 calls)

     Called by electrons:
     c_bands      :      3.37s CPU      3.40s WALL (       6 calls)
     sum_band     :      0.82s CPU      0.96s WALL (       6 calls)
     v_of_rho     :      0.13s CPU      0.14s WALL (       6 calls)
     newd         :      0.15s CPU      0.44s WALL (       6 calls)
     mix_rho      :      0.01s CPU      0.01s WALL (       6 calls)

     Called by c_bands:
     init_us_2    :      0.10s CPU      0.09s WALL (     360 calls)
     cegterg      :      2.97s CPU      2.99s WALL (     144 calls)

     Called by sum_band:
     sum_band:bec :      0.00s CPU      0.00s WALL (     144 calls)
     addusdens    :      0.20s CPU      0.34s WALL (       6 calls)

     Called by *egterg:
     h_psi        :      2.93s CPU      2.95s WALL (     482 calls)
     s_psi        :      0.05s CPU      0.05s WALL (     482 calls)
     g_psi        :      0.01s CPU      0.02s WALL (     314 calls)
     cdiaghg      :      0.05s CPU      0.05s WALL (     434 calls)

     Called by h_psi:
     add_vuspsi   :      0.04s CPU      0.05s WALL (     482 calls)

     General routines
     calbec       :      0.09s CPU      0.08s WALL (     746 calls)
     fft          :      0.12s CPU      0.12s WALL (     121 calls)
     ffts         :      0.01s CPU      0.01s WALL (      12 calls)
     fftw         :      3.17s CPU      3.09s WALL (    7548 calls)
     interpolate  :      0.02s CPU      0.02s WALL (      12 calls)
 
     Parallel routines
     fft_scatter  :      0.12s CPU      0.16s WALL (    7681 calls)
 
     PWSCF        :     5.50s CPU         6.28s WALL

 
   This run was terminated on:   3:13:44  24Jan2018            

=------------------------------------------------------------------------------=
   JOB DONE.
=------------------------------------------------------------------------------=
