
     Program PWSCF v.5.4.0 starts on 24Jan2018 at  2:59: 3 

     This program is part of the open-source Quantum ESPRESSO suite
     for quantum simulation of materials; please cite
         "P. Giannozzi et al., J. Phys.:Condens. Matter 21 395502 (2009);
          URL http://www.quantum-espresso.org", 
     in publications or presentations arising from this work. More details at
     http://www.quantum-espresso.org/quote

     Parallel version (MPI & OpenMP), running on       1 processor cores
     Number of MPI processes:                 1
     Threads/MPI process:                     1
     Reading input from pw_scf.in
Warning: card &IONS ignored
Warning: card / ignored
Warning: card &CELL ignored
Warning: card / ignored

     Current dimensions of program PWSCF are:
     Max number of different atomic species (ntypx) = 10
     Max number of k-points (npk) =  40000
     Max angular momentum in pseudopotentials (lmaxx) =  3

     Subspace diagonalization in iterative solution of the eigenvalue problem:
     a serial algorithm will be used

 
     G-vector sticks info
     --------------------
     sticks:   dense  smooth     PW     G-vecs:    dense   smooth      PW
     Sum         745     583    187                13323     9409    1639
 


     bravais-lattice index     =            0
     lattice parameter (alat)  =       7.3076  a.u.
     unit-cell volume          =     275.9333 (a.u.)^3
     number of atoms/cell      =            2
     number of atomic types    =            1
     number of electrons       =         8.00
     number of Kohn-Sham states=            8
     kinetic-energy cutoff     =      40.0000  Ry
     charge density cutoff     =     200.0000  Ry
     convergence threshold     =      1.0E-06
     mixing beta               =       0.3000
     number of iterations used =            8  plain     mixing
     Exchange-correlation      = SLA  PW   PBE  PBE ( 1  4  3  4 0 0)

     celldm(1)=   7.307571  celldm(2)=   0.000000  celldm(3)=   0.000000
     celldm(4)=   0.000000  celldm(5)=   0.000000  celldm(6)=   0.000000

     crystal axes: (cart. coord. in units of alat)
               a(1) = (   0.866025   0.000000   0.500000 )  
               a(2) = (   0.288675   0.816497   0.500000 )  
               a(3) = (   0.000000   0.000000   1.000000 )  

     reciprocal axes: (cart. coord. in units 2 pi/alat)
               b(1) = (  1.154701 -0.408248  0.000000 )  
               b(2) = (  0.000000  1.224745  0.000000 )  
               b(3) = ( -0.577350 -0.408248  1.000000 )  


     PseudoPot. # 1 for Si read from file:
     /home/pcje/data/pcje-default/si2-333-jan-23-2018-18-58-pm-6Ea5p6mx8kZXLJM9c/pseudo/si_pbe_gbrv_1.0.upf
     MD5 check sum: a056efeee980c13900f22a371efd63c1
     Pseudo is Ultrasoft + core correction, Zval =  4.0
     Generated by new atomic code, or converted to UPF format
     Using radial grid of  899 points,  6 beta functions with: 
                l(1) =   0
                l(2) =   0
                l(3) =   1
                l(4) =   1
                l(5) =   2
                l(6) =   2
     Q(r) pseudized with  8 coefficients,  rinner =    0.900   0.900   0.900
                                                       0.900   0.900

     atomic species   valence    mass     pseudopotential
        Si             4.00    28.08550     Si( 1.00)

      4 Sym. Ops., with inversion, found ( 2 have fractional translation)



   Cartesian axes

     site n.     atom                  positions (alat units)
         1           Si  tau(   1) = (   0.0000000   0.0000000   0.0000000  )
         2           Si  tau(   2) = (   0.2886752   0.2041241   0.5000000  )

     number of k points=    10  gaussian smearing, width (Ry)=  0.0050
                       cart. coord. in units 2pi/alat
        k(    1) = (   0.0000000   0.0000000   0.0000000), wk =   0.0740741
        k(    2) = (  -0.1924501  -0.1360827   0.3333333), wk =   0.2962963
        k(    3) = (   0.0000000   0.4082483   0.0000000), wk =   0.1481481
        k(    4) = (  -0.1924501   0.2721656   0.3333333), wk =   0.2962963
        k(    5) = (   0.1924501   0.5443311  -0.3333333), wk =   0.2962963
        k(    6) = (   0.3849002  -0.1360828   0.0000000), wk =   0.1481481
        k(    7) = (   0.5773503  -0.0000001  -0.3333333), wk =   0.2962963
        k(    8) = (   0.3849002   0.2721655   0.0000000), wk =   0.1481481
        k(    9) = (   0.5773503   0.4082482  -0.3333333), wk =   0.1481481
        k(   10) = (   0.3849002  -0.5443311   0.0000000), wk =   0.1481481

     Dense  grid:    13323 G-vectors     FFT dimensions: (  36,  36,  36)

     Smooth grid:     9409 G-vectors     FFT dimensions: (  30,  30,  30)

     Largest allocated arrays     est. size (Mb)     dimensions
        Kohn-Sham Wavefunctions         0.15 Mb     (    1243,    8)
        NL pseudopotentials             0.68 Mb     (    1243,   36)
        Each V/rho on FFT grid          0.71 Mb     (   46656)
        Each G-vector array             0.10 Mb     (   13323)
        G-vector shells                 0.03 Mb     (    3473)
     Largest temporary arrays     est. size (Mb)     dimensions
        Auxiliary wavefunctions         0.61 Mb     (    1243,   32)
        Each subspace H/S matrix        0.02 Mb     (      32,   32)
        Each <psi_i|beta_j> matrix      0.00 Mb     (      36,    8)
        Arrays for rho mixing           5.70 Mb     (   46656,    8)

     Initial potential from superposition of free atoms

     starting charge    7.99866, renormalised to    8.00000
     Starting wfc are    8 randomized atomic wfcs

     total cpu time spent up to now is        0.4 secs

     per-process dynamical memory:    29.0 Mb

     Self-consistent Calculation

     iteration #  1     ecut=    40.00 Ry     beta=0.30
     Davidson diagonalization with overlap
     ethr =  1.00E-02,  avg # of iterations =  3.3

     Threshold (ethr) on eigenvalues was too large:
     Diagonalizing with lowered threshold

     Davidson diagonalization with overlap
     ethr =  8.92E-04,  avg # of iterations =  3.3

     total cpu time spent up to now is        1.5 secs

     total energy              =     -19.15337367 Ry
     Harris-Foulkes estimate   =     -19.16316111 Ry
     estimated scf accuracy    <       0.07059747 Ry

     iteration #  2     ecut=    40.00 Ry     beta=0.30
     Davidson diagonalization with overlap
     ethr =  8.82E-04,  avg # of iterations =  1.0

     total cpu time spent up to now is        1.8 secs

     total energy              =     -19.14718322 Ry
     Harris-Foulkes estimate   =     -19.15399226 Ry
     estimated scf accuracy    <       0.02978486 Ry

     iteration #  3     ecut=    40.00 Ry     beta=0.30
     Davidson diagonalization with overlap
     ethr =  3.72E-04,  avg # of iterations =  1.8

     total cpu time spent up to now is        2.2 secs

     total energy              =     -19.14876085 Ry
     Harris-Foulkes estimate   =     -19.14878070 Ry
     estimated scf accuracy    <       0.00037666 Ry

     iteration #  4     ecut=    40.00 Ry     beta=0.30
     Davidson diagonalization with overlap
     ethr =  4.71E-06,  avg # of iterations =  3.3

     total cpu time spent up to now is        2.7 secs

     total energy              =     -19.14885185 Ry
     Harris-Foulkes estimate   =     -19.14884844 Ry
     estimated scf accuracy    <       0.00000679 Ry

     iteration #  5     ecut=    40.00 Ry     beta=0.30
     Davidson diagonalization with overlap
     ethr =  8.48E-08,  avg # of iterations =  4.9

     total cpu time spent up to now is        3.2 secs

     End of self-consistent calculation

          k = 0.0000 0.0000 0.0000 (  1243 PWs)   bands (ev):

    -5.7552   6.0798   6.0798   6.0798   8.5950   8.5950   8.5950   9.2102

          k =-0.1925-0.1361 0.3333 (  1176 PWs)   bands (ev):

    -4.4028   0.7906   5.0862   5.0862   7.7544   9.5431   9.5431  13.8448

          k = 0.0000 0.4082 0.0000 (  1176 PWs)   bands (ev):

    -4.4029   0.7906   5.0862   5.0862   7.7544   9.5431   9.5431  13.8448

          k =-0.1925 0.2722 0.3333 (  1174 PWs)   bands (ev):

    -3.8828   1.0817   3.6900   3.6900   6.8046   8.0643  13.2350  13.2350

          k = 0.1925 0.5443-0.3333 (  1182 PWs)   bands (ev):

    -2.5515  -0.6469   1.7361   3.9906   7.6329  11.8431  12.4512  13.0375

          k = 0.3849-0.1361 0.0000 (  1176 PWs)   bands (ev):

    -4.4028   0.7906   5.0862   5.0862   7.7544   9.5431   9.5431  13.8448

          k = 0.5774-0.0000-0.3333 (  1182 PWs)   bands (ev):

    -2.5515  -0.6469   1.7361   3.9906   7.6329  11.8431  12.4512  13.0375

          k = 0.3849 0.2722 0.0000 (  1174 PWs)   bands (ev):

    -3.8828   1.0817   3.6900   3.6900   6.8046   8.0643  13.2350  13.2350

          k = 0.5774 0.4082-0.3333 (  1182 PWs)   bands (ev):

    -2.5515  -0.6469   1.7361   3.9906   7.6329  11.8431  12.4512  13.0375

          k = 0.3849-0.5443 0.0000 (  1182 PWs)   bands (ev):

    -2.5515  -0.6469   1.7361   3.9906   7.6329  11.8431  12.4512  13.0375

     the Fermi energy is     6.4512 ev

!    total energy              =     -19.14885417 Ry
     Harris-Foulkes estimate   =     -19.14885325 Ry
     estimated scf accuracy    <       0.00000055 Ry

     The total energy is the sum of the following terms:

     one-electron contribution =       4.96198247 Ry
     hartree contribution      =       1.19328466 Ry
     xc contribution           =      -8.62425148 Ry
     ewald contribution        =     -16.67986983 Ry
     smearing contrib. (-TS)   =      -0.00000000 Ry

     convergence has been achieved in   5 iterations

     Forces acting on atoms (Ry/au):

     atom    1 type  1   force =    -0.00000018    0.00000119    0.00000000
     atom    2 type  1   force =     0.00000018   -0.00000119    0.00000000

     Total force =     0.000002     Total SCF correction =     0.000004
     SCF correction compared to forces is large: reduce conv_thr to get better values


     entering subroutine stress ...

          total   stress  (Ry/bohr**3)                   (kbar)     P=   17.86
   0.00012135   0.00000002   0.00000000         17.85      0.00      0.00
   0.00000002   0.00012144  -0.00000000          0.00     17.86     -0.00
   0.00000000  -0.00000000   0.00012138          0.00     -0.00     17.86


     Writing output data file __prefix__.save
 
     init_run     :      0.33s CPU      0.36s WALL (       1 calls)
     electrons    :      2.21s CPU      2.84s WALL (       1 calls)
     forces       :      0.11s CPU      0.15s WALL (       1 calls)
     stress       :      0.34s CPU      0.38s WALL (       1 calls)

     Called by init_run:
     wfcinit      :      0.08s CPU      0.08s WALL (       1 calls)
     potinit      :      0.04s CPU      0.04s WALL (       1 calls)

     Called by electrons:
     c_bands      :      1.46s CPU      1.48s WALL (       6 calls)
     sum_band     :      0.48s CPU      0.92s WALL (       6 calls)
     v_of_rho     :      0.13s CPU      0.14s WALL (       6 calls)
     newd         :      0.16s CPU      0.28s WALL (       6 calls)
     mix_rho      :      0.01s CPU      0.01s WALL (       6 calls)

     Called by c_bands:
     init_us_2    :      0.04s CPU      0.04s WALL (     150 calls)
     cegterg      :      1.29s CPU      1.31s WALL (      60 calls)

     Called by sum_band:
     sum_band:bec :      0.00s CPU      0.00s WALL (      60 calls)
     addusdens    :      0.20s CPU      0.64s WALL (       6 calls)

     Called by *egterg:
     h_psi        :      1.26s CPU      1.27s WALL (     246 calls)
     s_psi        :      0.02s CPU      0.02s WALL (     246 calls)
     g_psi        :      0.01s CPU      0.01s WALL (     176 calls)
     cdiaghg      :      0.02s CPU      0.03s WALL (     226 calls)

     Called by h_psi:
     add_vuspsi   :      0.02s CPU      0.02s WALL (     246 calls)

     General routines
     calbec       :      0.03s CPU      0.03s WALL (     356 calls)
     fft          :      0.12s CPU      0.12s WALL (     121 calls)
     ffts         :      0.01s CPU      0.01s WALL (      12 calls)
     fftw         :      1.36s CPU      1.32s WALL (    3250 calls)
     interpolate  :      0.02s CPU      0.02s WALL (      12 calls)
 
     Parallel routines
     fft_scatter  :      0.07s CPU      0.08s WALL (    3383 calls)
 
     PWSCF        :     3.04s CPU         4.17s WALL

 
   This run was terminated on:   2:59: 7  24Jan2018            

=------------------------------------------------------------------------------=
   JOB DONE.
=------------------------------------------------------------------------------=
