
     Program PWSCF v.5.4.0 starts on 24Jan2018 at  3:30:17 

     This program is part of the open-source Quantum ESPRESSO suite
     for quantum simulation of materials; please cite
         "P. Giannozzi et al., J. Phys.:Condens. Matter 21 395502 (2009);
          URL http://www.quantum-espresso.org", 
     in publications or presentations arising from this work. More details at
     http://www.quantum-espresso.org/quote

     Parallel version (MPI & OpenMP), running on       1 processor cores
     Number of MPI processes:                 1
     Threads/MPI process:                     1
     Reading input from pw_scf.in
Warning: card &IONS ignored
Warning: card / ignored
Warning: card &CELL ignored
Warning: card / ignored

     Current dimensions of program PWSCF are:
     Max number of different atomic species (ntypx) = 10
     Max number of k-points (npk) =  40000
     Max angular momentum in pseudopotentials (lmaxx) =  3

     Subspace diagonalization in iterative solution of the eigenvalue problem:
     a serial algorithm will be used

 
     G-vector sticks info
     --------------------
     sticks:   dense  smooth     PW     G-vecs:    dense   smooth      PW
     Sum         745     583    187                13323     9409    1687
 


     bravais-lattice index     =            0
     lattice parameter (alat)  =       7.3076  a.u.
     unit-cell volume          =     275.9333 (a.u.)^3
     number of atoms/cell      =            2
     number of atomic types    =            1
     number of electrons       =         8.00
     number of Kohn-Sham states=            8
     kinetic-energy cutoff     =      40.0000  Ry
     charge density cutoff     =     200.0000  Ry
     convergence threshold     =      1.0E-06
     mixing beta               =       0.3000
     number of iterations used =            8  plain     mixing
     Exchange-correlation      = SLA  PW   PBE  PBE ( 1  4  3  4 0 0)

     celldm(1)=   7.307571  celldm(2)=   0.000000  celldm(3)=   0.000000
     celldm(4)=   0.000000  celldm(5)=   0.000000  celldm(6)=   0.000000

     crystal axes: (cart. coord. in units of alat)
               a(1) = (   0.866025   0.000000   0.500000 )  
               a(2) = (   0.288675   0.816497   0.500000 )  
               a(3) = (   0.000000   0.000000   1.000000 )  

     reciprocal axes: (cart. coord. in units 2 pi/alat)
               b(1) = (  1.154701 -0.408248  0.000000 )  
               b(2) = (  0.000000  1.224745  0.000000 )  
               b(3) = ( -0.577350 -0.408248  1.000000 )  


     PseudoPot. # 1 for Si read from file:
     /home/pcje/data/pcje-default/si2-888-jan-23-2018-19-29-pm-w7fuMocgo4Q9bseZP/pseudo/si_pbe_gbrv_1.0.upf
     MD5 check sum: a056efeee980c13900f22a371efd63c1
     Pseudo is Ultrasoft + core correction, Zval =  4.0
     Generated by new atomic code, or converted to UPF format
     Using radial grid of  899 points,  6 beta functions with: 
                l(1) =   0
                l(2) =   0
                l(3) =   1
                l(4) =   1
                l(5) =   2
                l(6) =   2
     Q(r) pseudized with  8 coefficients,  rinner =    0.900   0.900   0.900
                                                       0.900   0.900

     atomic species   valence    mass     pseudopotential
        Si             4.00    28.08550     Si( 1.00)

      4 Sym. Ops., with inversion, found ( 2 have fractional translation)



   Cartesian axes

     site n.     atom                  positions (alat units)
         1           Si  tau(   1) = (   0.0000000   0.0000000   0.0000000  )
         2           Si  tau(   2) = (   0.2886752   0.2041241   0.5000000  )

     number of k points=   150  gaussian smearing, width (Ry)=  0.0050

     Number of k-points >= 100: set verbosity='high' to print them.

     Dense  grid:    13323 G-vectors     FFT dimensions: (  36,  36,  36)

     Smooth grid:     9409 G-vectors     FFT dimensions: (  30,  30,  30)

     Largest allocated arrays     est. size (Mb)     dimensions
        Kohn-Sham Wavefunctions         0.15 Mb     (    1243,    8)
        NL pseudopotentials             0.68 Mb     (    1243,   36)
        Each V/rho on FFT grid          0.71 Mb     (   46656)
        Each G-vector array             0.10 Mb     (   13323)
        G-vector shells                 0.03 Mb     (    3473)
     Largest temporary arrays     est. size (Mb)     dimensions
        Auxiliary wavefunctions         0.61 Mb     (    1243,   32)
        Each subspace H/S matrix        0.02 Mb     (      32,   32)
        Each <psi_i|beta_j> matrix      0.00 Mb     (      36,    8)
        Arrays for rho mixing           5.70 Mb     (   46656,    8)

     Initial potential from superposition of free atoms

     starting charge    7.99866, renormalised to    8.00000
     Starting wfc are    8 randomized atomic wfcs

     total cpu time spent up to now is        1.6 secs

     per-process dynamical memory:    51.4 Mb

     Self-consistent Calculation

     iteration #  1     ecut=    40.00 Ry     beta=0.30
     Davidson diagonalization with overlap
     ethr =  1.00E-02,  avg # of iterations =  3.7

     Threshold (ethr) on eigenvalues was too large:
     Diagonalizing with lowered threshold

     Davidson diagonalization with overlap
     ethr =  6.92E-04,  avg # of iterations =  2.0

     total cpu time spent up to now is       10.8 secs

     total energy              =     -19.19653116 Ry
     Harris-Foulkes estimate   =     -19.20365707 Ry
     estimated scf accuracy    <       0.05467196 Ry

     iteration #  2     ecut=    40.00 Ry     beta=0.30
     Davidson diagonalization with overlap
     ethr =  6.83E-04,  avg # of iterations =  1.0

     total cpu time spent up to now is       14.5 secs

     total energy              =     -19.19194775 Ry
     Harris-Foulkes estimate   =     -19.19704723 Ry
     estimated scf accuracy    <       0.02294958 Ry

     iteration #  3     ecut=    40.00 Ry     beta=0.30
     Davidson diagonalization with overlap
     ethr =  2.87E-04,  avg # of iterations =  1.3

     total cpu time spent up to now is       18.1 secs

     total energy              =     -19.19310255 Ry
     Harris-Foulkes estimate   =     -19.19314931 Ry
     estimated scf accuracy    <       0.00031313 Ry

     iteration #  4     ecut=    40.00 Ry     beta=0.30
     Davidson diagonalization with overlap
     ethr =  3.91E-06,  avg # of iterations =  3.8

     total cpu time spent up to now is       23.5 secs

     total energy              =     -19.19318474 Ry
     Harris-Foulkes estimate   =     -19.19318369 Ry
     estimated scf accuracy    <       0.00000401 Ry

     iteration #  5     ecut=    40.00 Ry     beta=0.30
     Davidson diagonalization with overlap
     ethr =  5.01E-08,  avg # of iterations =  3.1

     total cpu time spent up to now is       28.1 secs

     End of self-consistent calculation

     Number of k-points >= 100: set verbosity='high' to print the bands.

     the Fermi energy is     6.3230 ev

!    total energy              =     -19.19318602 Ry
     Harris-Foulkes estimate   =     -19.19318562 Ry
     estimated scf accuracy    <       0.00000029 Ry

     The total energy is the sum of the following terms:

     one-electron contribution =       4.94819291 Ry
     hartree contribution      =       1.13500678 Ry
     xc contribution           =      -8.59651588 Ry
     ewald contribution        =     -16.67986983 Ry
     smearing contrib. (-TS)   =      -0.00000000 Ry

     convergence has been achieved in   5 iterations

     Forces acting on atoms (Ry/au):

     atom    1 type  1   force =     0.00000016    0.00000030    0.00000000
     atom    2 type  1   force =    -0.00000016   -0.00000030    0.00000000

     Total force =     0.000000     Total SCF correction =     0.000001
     SCF correction compared to forces is large: reduce conv_thr to get better values


     entering subroutine stress ...

          total   stress  (Ry/bohr**3)                   (kbar)     P=   -0.51
  -0.00000348  -0.00000000   0.00000000         -0.51     -0.00      0.00
  -0.00000000  -0.00000348   0.00000000         -0.00     -0.51      0.00
   0.00000000  -0.00000000  -0.00000349          0.00     -0.00     -0.51


     Writing output data file __prefix__.save
 
     init_run     :      1.52s CPU      1.55s WALL (       1 calls)
     electrons    :     25.89s CPU     26.55s WALL (       1 calls)
     forces       :      0.27s CPU      0.29s WALL (       1 calls)
     stress       :      0.94s CPU      1.03s WALL (       1 calls)

     Called by init_run:
     wfcinit      :      1.25s CPU      1.26s WALL (       1 calls)
     potinit      :      0.04s CPU      0.04s WALL (       1 calls)

     Called by electrons:
     c_bands      :     21.69s CPU     21.86s WALL (       6 calls)
     sum_band     :      3.94s CPU      4.12s WALL (       6 calls)
     v_of_rho     :      0.13s CPU      0.14s WALL (       6 calls)
     newd         :      0.15s CPU      0.48s WALL (       6 calls)
     mix_rho      :      0.01s CPU      0.01s WALL (       6 calls)

     Called by c_bands:
     init_us_2    :      0.57s CPU      0.58s WALL (    2250 calls)
     cegterg      :     19.16s CPU     19.31s WALL (     900 calls)

     Called by sum_band:
     sum_band:bec :      0.00s CPU      0.01s WALL (     900 calls)
     addusdens    :      0.20s CPU      0.35s WALL (       6 calls)

     Called by *egterg:
     h_psi        :     18.81s CPU     18.96s WALL (    3298 calls)
     s_psi        :      0.31s CPU      0.30s WALL (    3298 calls)
     g_psi        :      0.10s CPU      0.10s WALL (    2248 calls)
     cdiaghg      :      0.33s CPU      0.33s WALL (    2998 calls)

     Called by h_psi:
     add_vuspsi   :      0.29s CPU      0.29s WALL (    3298 calls)

     General routines
     calbec       :      0.49s CPU      0.48s WALL (    4948 calls)
     fft          :      0.12s CPU      0.12s WALL (     121 calls)
     ffts         :      0.01s CPU      0.01s WALL (      12 calls)
     fftw         :     19.67s CPU     19.79s WALL (   48022 calls)
     interpolate  :      0.02s CPU      0.02s WALL (      12 calls)
 
     Parallel routines
     fft_scatter  :      0.85s CPU      0.99s WALL (   48155 calls)
 
     PWSCF        :    28.91s CPU        30.30s WALL

 
   This run was terminated on:   3:30:47  24Jan2018            

=------------------------------------------------------------------------------=
   JOB DONE.
=------------------------------------------------------------------------------=
