
     Program PWSCF v.5.4.0 starts on 23Jan2018 at  1:50:29 

     This program is part of the open-source Quantum ESPRESSO suite
     for quantum simulation of materials; please cite
         "P. Giannozzi et al., J. Phys.:Condens. Matter 21 395502 (2009);
          URL http://www.quantum-espresso.org", 
     in publications or presentations arising from this work. More details at
     http://www.quantum-espresso.org/quote

     Parallel version (MPI & OpenMP), running on       1 processor cores
     Number of MPI processes:                 1
     Threads/MPI process:                     1
     Reading input from pw_scf.in
Warning: card &IONS ignored
Warning: card / ignored
Warning: card &CELL ignored
Warning: card / ignored

     Current dimensions of program PWSCF are:
     Max number of different atomic species (ntypx) = 10
     Max number of k-points (npk) =  40000
     Max angular momentum in pseudopotentials (lmaxx) =  3

     Subspace diagonalization in iterative solution of the eigenvalue problem:
     a serial algorithm will be used

 
     G-vector sticks info
     --------------------
     sticks:   dense  smooth     PW     G-vecs:    dense   smooth      PW
     Sum         745     583    151                13323     9409    1243
 


     bravais-lattice index     =            0
     lattice parameter (alat)  =       7.3076  a.u.
     unit-cell volume          =     275.9333 (a.u.)^3
     number of atoms/cell      =            2
     number of atomic types    =            1
     number of electrons       =         8.00
     number of Kohn-Sham states=            8
     kinetic-energy cutoff     =      40.0000  Ry
     charge density cutoff     =     200.0000  Ry
     convergence threshold     =      1.0E-06
     mixing beta               =       0.3000
     number of iterations used =            8  plain     mixing
     Exchange-correlation      = SLA  PW   PBE  PBE ( 1  4  3  4 0 0)

     celldm(1)=   7.307571  celldm(2)=   0.000000  celldm(3)=   0.000000
     celldm(4)=   0.000000  celldm(5)=   0.000000  celldm(6)=   0.000000

     crystal axes: (cart. coord. in units of alat)
               a(1) = (   0.866025   0.000000   0.500000 )  
               a(2) = (   0.288675   0.816497   0.500000 )  
               a(3) = (   0.000000   0.000000   1.000000 )  

     reciprocal axes: (cart. coord. in units 2 pi/alat)
               b(1) = (  1.154701 -0.408248  0.000000 )  
               b(2) = (  0.000000  1.224745  0.000000 )  
               b(3) = ( -0.577350 -0.408248  1.000000 )  


     PseudoPot. # 1 for Si read from file:
     /home/pcje/data/pcje-default/new-job-jan-22-2018-10-51-am-g62nT4BdD2NKRddXD/pseudo/si_pbe_gbrv_1.0.upf
     MD5 check sum: a056efeee980c13900f22a371efd63c1
     Pseudo is Ultrasoft + core correction, Zval =  4.0
     Generated by new atomic code, or converted to UPF format
     Using radial grid of  899 points,  6 beta functions with: 
                l(1) =   0
                l(2) =   0
                l(3) =   1
                l(4) =   1
                l(5) =   2
                l(6) =   2
     Q(r) pseudized with  8 coefficients,  rinner =    0.900   0.900   0.900
                                                       0.900   0.900

     atomic species   valence    mass     pseudopotential
        Si             4.00    28.08550     Si( 1.00)

      4 Sym. Ops., with inversion, found ( 2 have fractional translation)



   Cartesian axes

     site n.     atom                  positions (alat units)
         1           Si  tau(   1) = (   0.0000000   0.0000000   0.0000000  )
         2           Si  tau(   2) = (   0.2886752   0.2041241   0.5000000  )

     number of k points=     1  gaussian smearing, width (Ry)=  0.0050
                       cart. coord. in units 2pi/alat
        k(    1) = (   0.0000000   0.0000000   0.0000000), wk =   2.0000000

     Dense  grid:    13323 G-vectors     FFT dimensions: (  36,  36,  36)

     Smooth grid:     9409 G-vectors     FFT dimensions: (  30,  30,  30)

     Largest allocated arrays     est. size (Mb)     dimensions
        Kohn-Sham Wavefunctions         0.15 Mb     (    1243,    8)
        NL pseudopotentials             0.68 Mb     (    1243,   36)
        Each V/rho on FFT grid          0.71 Mb     (   46656)
        Each G-vector array             0.10 Mb     (   13323)
        G-vector shells                 0.03 Mb     (    3473)
     Largest temporary arrays     est. size (Mb)     dimensions
        Auxiliary wavefunctions         0.61 Mb     (    1243,   32)
        Each subspace H/S matrix        0.02 Mb     (      32,   32)
        Each <psi_i|beta_j> matrix      0.00 Mb     (      36,    8)
        Arrays for rho mixing           5.70 Mb     (   46656,    8)

     Initial potential from superposition of free atoms

     starting charge    7.99866, renormalised to    8.00000
     Starting wfc are    8 randomized atomic wfcs

     total cpu time spent up to now is        2.7 secs

     per-process dynamical memory:    28.5 Mb

     Self-consistent Calculation

     iteration #  1     ecut=    40.00 Ry     beta=0.30
     Davidson diagonalization with overlap
     ethr =  1.00E-02,  avg # of iterations =  2.0

     total cpu time spent up to now is        3.0 secs

     total energy              =     -17.98290363 Ry
     Harris-Foulkes estimate   =     -18.03486633 Ry
     estimated scf accuracy    <       0.32144634 Ry

     iteration #  2     ecut=    40.00 Ry     beta=0.30
     Davidson diagonalization with overlap
     ethr =  4.02E-03,  avg # of iterations =  1.0

     total cpu time spent up to now is        3.1 secs

     total energy              =     -17.95075908 Ry
     Harris-Foulkes estimate   =     -17.98721352 Ry
     estimated scf accuracy    <       0.13397485 Ry

     iteration #  3     ecut=    40.00 Ry     beta=0.30
     Davidson diagonalization with overlap
     ethr =  1.67E-03,  avg # of iterations =  1.0

     total cpu time spent up to now is        3.3 secs

     total energy              =     -17.95846410 Ry
     Harris-Foulkes estimate   =     -17.95782884 Ry
     estimated scf accuracy    <       0.00125631 Ry

     iteration #  4     ecut=    40.00 Ry     beta=0.30
     Davidson diagonalization with overlap
     ethr =  1.57E-05,  avg # of iterations =  3.0

     total cpu time spent up to now is        3.5 secs

     total energy              =     -17.95901457 Ry
     Harris-Foulkes estimate   =     -17.95906619 Ry
     estimated scf accuracy    <       0.00023430 Ry

     iteration #  5     ecut=    40.00 Ry     beta=0.30
     Davidson diagonalization with overlap
     ethr =  2.93E-06,  avg # of iterations =  2.0

     total cpu time spent up to now is        3.7 secs

     total energy              =     -17.95904007 Ry
     Harris-Foulkes estimate   =     -17.95903055 Ry
     estimated scf accuracy    <       0.00000790 Ry

     iteration #  6     ecut=    40.00 Ry     beta=0.30
     Davidson diagonalization with overlap
     ethr =  9.87E-08,  avg # of iterations =  2.0

     total cpu time spent up to now is        3.8 secs

     End of self-consistent calculation

          k = 0.0000 0.0000 0.0000 (  1243 PWs)   bands (ev):

    -5.0388   6.9557   6.9557   6.9557   9.2488   9.2488   9.2488  10.1824

     the Fermi energy is     8.3818 ev

!    total energy              =     -17.95904341 Ry
     Harris-Foulkes estimate   =     -17.95904140 Ry
     estimated scf accuracy    <       0.00000067 Ry

     The total energy is the sum of the following terms:

     one-electron contribution =       5.88598214 Ry
     hartree contribution      =       1.72143585 Ry
     xc contribution           =      -8.88659157 Ry
     ewald contribution        =     -16.67986983 Ry
     smearing contrib. (-TS)   =      -0.00000000 Ry

     convergence has been achieved in   6 iterations

     Forces acting on atoms (Ry/au):

     atom    1 type  1   force =    -0.00000061    0.00000054    0.00000000
     atom    2 type  1   force =     0.00000061   -0.00000054    0.00000000

     Total force =     0.000001     Total SCF correction =     0.000001
     SCF correction compared to forces is large: reduce conv_thr to get better values


     entering subroutine stress ...

          total   stress  (Ry/bohr**3)                   (kbar)     P=  392.62
   0.00266896  -0.00000001   0.00000000        392.62     -0.00      0.00
  -0.00000001   0.00266893   0.00000000         -0.00    392.61      0.00
   0.00000000   0.00000000   0.00266896          0.00      0.00    392.62


     Writing output data file __prefix__.save
 
     init_run     :      0.27s CPU      2.32s WALL (       1 calls)
     electrons    :      0.70s CPU      1.20s WALL (       1 calls)
     forces       :      0.10s CPU      0.14s WALL (       1 calls)
     stress       :      0.29s CPU      0.38s WALL (       1 calls)

     Called by init_run:
     wfcinit      :      0.01s CPU      0.01s WALL (       1 calls)
     potinit      :      0.04s CPU      0.04s WALL (       1 calls)

     Called by electrons:
     c_bands      :      0.13s CPU      0.14s WALL (       6 calls)
     sum_band     :      0.25s CPU      0.60s WALL (       6 calls)
     v_of_rho     :      0.15s CPU      0.16s WALL (       7 calls)
     newd         :      0.18s CPU      1.96s WALL (       7 calls)
     mix_rho      :      0.01s CPU      0.02s WALL (       6 calls)

     Called by c_bands:
     init_us_2    :      0.00s CPU      0.00s WALL (      13 calls)
     cegterg      :      0.12s CPU      0.12s WALL (       6 calls)

     Called by sum_band:
     sum_band:bec :      0.00s CPU      0.00s WALL (       6 calls)
     addusdens    :      0.20s CPU      0.55s WALL (       6 calls)

     Called by *egterg:
     h_psi        :      0.11s CPU      0.11s WALL (      18 calls)
     s_psi        :      0.00s CPU      0.00s WALL (      18 calls)
     g_psi        :      0.00s CPU      0.00s WALL (      11 calls)
     cdiaghg      :      0.00s CPU      0.00s WALL (      17 calls)

     Called by h_psi:
     add_vuspsi   :      0.00s CPU      0.00s WALL (      18 calls)

     General routines
     calbec       :      0.00s CPU      0.00s WALL (      29 calls)
     fft          :      0.13s CPU      0.13s WALL (     133 calls)
     ffts         :      0.01s CPU      0.01s WALL (      13 calls)
     fftw         :      0.12s CPU      0.12s WALL (     308 calls)
     interpolate  :      0.02s CPU      0.02s WALL (      13 calls)
 
     Parallel routines
     fft_scatter  :      0.01s CPU      0.01s WALL (     454 calls)
 
     PWSCF        :     1.39s CPU         4.47s WALL

 
   This run was terminated on:   1:50:33  23Jan2018            

=------------------------------------------------------------------------------=
   JOB DONE.
=------------------------------------------------------------------------------=
